Siesta Version  : trunk-764
Architecture    : unknown
Compiler version: GNU Fortran (Ubuntu 5.4.0-6ubuntu1~16.04.10) 5.4.0 20160609
Compiler flags  : mpif90 -O2 -fPIC -ftree-vectorize
PP flags        : -DFC_HAVE_ABORT -DMPI -DFC_HAVE_FLUSH -DFC_HAVE_ABORT -DGRID_DP -DPHI_GRID_SP -DSIESTA__FLOOK -DSIESTA__FLOOK -DSIESTA__DIAG_2STAGE
Libraries       : libsiestaLAPACK.a libsiestaBLAS.a libfdict.a libfdict.a  /usr/lib/libscalapack-openmpi.so   libsiestaLAPACK.a libsiestaBLAS.a libfdict.a libfdict.a /usr/lib/libblacsF77init-openmpi.so /usr/lib/libblacsCinit-openmpi.so /usr/lib/libblacs-openmpi.so  -lflookall -ldl -lflookall -ldl
Directory       : /home/ICN2/aakhtar/Calculations/Learning/FC-LUA
PARALLEL version
Lua support

* Running on 6 nodes in parallel
>> Start of run:   1-JUL-2019  16:33:53

                           ***********************       
                           *  WELCOME TO SIESTA  *       
                           ***********************       

reinit: Reading from standard input
reinit: Dumped input in INPUT_TMP.20245
************************** Dump of input data file ****************************
# Created by GDIS version 0.90.0
SystemLabel      MgO-3x3x1-2V
#----------------------------------------------------------
#                       Crystal flags
#----------------------------------------------------------
NumberOfAtoms    18
NumberOfSpecies  2
%block ChemicalSpeciesLabel
    1   12  Mg
    2    8  O
#    3   -8  VO
%endblock ChemicalSpeciesLabel
LatticeConstant 1.0 Ang
%block LatticeParameters
   9.838267618    9.838267618   50.6060000000  90 90 120
%endblock LatticeParameters
AtomicCoordinatesFormat Fractional
%block AtomicCoordinatesAndAtomicSpecies
         0.111000000    0.222000000    0.500000000    1  1  Mg
         0.222000000    0.111000000    0.500000000    2  17  O
         0.111000000    0.555333000    0.500000000    1  2  Mg
         0.111000000    0.888667000    0.500000000    1  3  Mg
         0.444333000    0.222000000    0.500000000    1  4  Mg
         0.444333000    0.555333000    0.500000000    1  5  Mg
         0.444333000    0.888667000    0.500000000    1  6  Mg
         0.777667000    0.222000000    0.500000000    1  7  Mg
         0.777667000    0.555333000    0.500000000    1  8  Mg
         0.777667000    0.888667000    0.500000000    1  9  Mg
         0.555333000    0.777667000    0.500000000    2  18  O
         0.222000000    0.444333000    0.500000000    2  10  O
         0.222000000    0.777667000    0.500000000    2  11  O
         0.555333000    0.111000000    0.500000000    2  12  O
         0.555333000    0.444333000    0.500000000    2  13  O
         0.888667000    0.111000000    0.500000000    2  14  O
         0.888667000    0.444333000    0.500000000    2  15  O
         0.888667000    0.777667000    0.500000000    2  16  O
%endblock AtomicCoordinatesAndAtomicSpecies
#----------------------------------------------------------
#                       Basis flags
#----------------------------------------------------------
%block PAO.BasisSizes
Mg  DZP
O   DZP
%endblock PAO.BasisSizes
%block kgrid_Monkhorst_Pack
10  0    0     0.0
0   10    0     0.0
0   0    1     0.0
%endblock kgrid_Monkhorst_Pack
MeshCutoff 		300  Ry
XC.functional 		GGA
XC.authors 		revPBE
SpinPolarized           .true.
#----------------------------------------------------------
#                       DM flags
#----------------------------------------------------------
DM.MixingWeight 	0.20
DM.NumberPulay          4
DM.UseSaveDM            .true.
DM.Tolerance 		1.0d-4
MaxSCFIterations 	150
#----------------------------------------------------------
#                       MD flags
#----------------------------------------------------------
MD.MaxCGDispl           0.1 Bohr
#MD.TypeOfRun            CG
MD.VariableCell         .False.
MD.NumCGsteps           200
MD.MaxForceTol          0.04000 eV/Ang
MD.UseSaveXV            .true.
#----------------------------------------------------------
#                       Electronic flags
#----------------------------------------------------------
ElectronicTemperature   5 K
NumberOfEigenStates     800
UseNewDiagk            .false.
Diag.ParallelOverK     .false.
LongOutput
WriteMDHistory         .true.
WriteMDXmol            .true.
#COOP.Write .true.
BandLinesScale ReciprocalLatticeVectors
%block BandLines
   1  0.000 0.000 0.000  \Gamma
 200  0.500 0.000 0.000  M
 200  0.333 0.333 0.000  K
 200  0.000 0.000 0.000  \Gamma
%endblock BandLines
Eigenvectors         True
MD.TypeOfRun           FC
MD.FCfirst             1
MD.FClast              2
MD.FCdispl             0.0400000000  Bohr
************************** End of input data file *****************************

reinit: -----------------------------------------------------------------------
reinit: System Name: 
reinit: -----------------------------------------------------------------------
reinit: System Label: MgO-3x3x1-2V
reinit: -----------------------------------------------------------------------

initatom: Reading input for the pseudopotentials and atomic orbitals ----------
Species number:   1 Atomic number:   12 Label: Mg
Species number:   2 Atomic number:    8 Label: O

Ground state valence configuration:   3s02
Reading pseudopotential information in formatted form from Mg.psf

Valence configuration for pseudopotential generation:
3s( 2.00) rc: 2.59
3p( 0.00) rc: 2.76
3d( 0.00) rc: 1.90
4f( 0.00) rc: 1.90
Ground state valence configuration:   2s02  2p04
Reading pseudopotential information in formatted form from O.psf

Pseudopotential generated from a relativistic atomic calculation

Valence configuration for pseudopotential generation:
2s( 2.00) rc: 1.14
2p( 4.00) rc: 1.14
3d( 0.00) rc: 1.14
4f( 0.00) rc: 1.48
resizes: Read basis size for species Mg = dzp                 
resizes: Read basis size for species O = dzp                 
For Mg, standard SIESTA heuristics set lmxkb to 2
 (one more than the basis l, including polarization orbitals).
Use PS.lmax or PS.KBprojectors blocks to override.
For O, standard SIESTA heuristics set lmxkb to 3
 (one more than the basis l, including polarization orbitals).
Use PS.lmax or PS.KBprojectors blocks to override.

<basis_specs>
===============================================================================
Mg                   Z=  12    Mass=  24.310        Charge= 0.17977+309
Lmxo=0 Lmxkb= 2    BasisType=split      Semic=F
L=0  Nsemic=0  Cnfigmx=3
          i=1  nzeta=2  polorb=1  (3s)
            splnorm:   0.15000    
               vcte:    0.0000    
               rinn:    0.0000    
               qcoe:    0.0000    
               qyuk:    0.0000    
               qwid:   0.10000E-01
                rcs:    0.0000      0.0000    
            lambdas:    1.0000      1.0000    
-------------------------------------------------------------------------------
L=0  Nkbl=1  erefs: 0.17977+309
L=1  Nkbl=1  erefs: 0.17977+309
L=2  Nkbl=1  erefs: 0.17977+309
===============================================================================
</basis_specs>

atom: Called for Mg                    (Z =  12)

read_vps: Pseudopotential generation method:
read_vps: ATM3      Troullier-Martins                       
Total valence charge:    2.00000

read_vps: Pseudopotential includes a core correction:
read_vps: Pseudo-core for xc-correction

xc_check: Exchange-correlation functional:
xc_check: GGA revPBE
xc_check: WARNING: Pseudopotential generated with GGA PBE functional
V l=0 = -2*Zval/r beyond r=  2.7941
V l=1 = -2*Zval/r beyond r=  2.8649
V l=2 = -2*Zval/r beyond r=  2.7941
All V_l potentials equal beyond r=  2.6913
This should be close to max(r_c) in ps generation
All pots = -2*Zval/r beyond r=  2.8649

VLOCAL1: 99.0% of the norm of Vloc inside      5.993 Ry
VLOCAL1: 99.9% of the norm of Vloc inside     13.658 Ry
atom: Maximum radius for 4*pi*r*r*local-pseudopot. charge    3.16619
atom: Maximum radius for r*vlocal+2*Zval:    2.72513

KBgen: Kleinman-Bylander projectors: 
GHOST: No ghost state for L =  0
   l= 0   rc=  3.088009   el= -0.346455   Ekb=  2.456463   kbcos=  0.270819
GHOST: No ghost state for L =  1
   l= 1   rc=  3.246345   el= -0.098996   Ekb=  0.819459   kbcos=  0.252960
GHOST: No ghost state for L =  2
   l= 2   rc=  3.246345   el=  0.001969   Ekb= -2.090192   kbcos= -0.037102

KBgen: Total number of  Kleinman-Bylander projectors:    9
atom: -------------------------------------------------------------------------

atom: SANKEY-TYPE ORBITALS:
atom: Selected multiple-zeta basis: split     

SPLIT: Orbitals with angular momentum L= 0

SPLIT: Basis orbitals for state 3s

SPLIT: PAO cut-off radius determined from an
SPLIT: energy shift=  0.020000 Ry

   izeta = 1
                 lambda =    1.000000
                     rc =    6.619780
                 energy =   -0.327204
                kinetic =    0.288964
    potential(screened) =   -0.616168
       potential(ionic) =   -1.340010

   izeta = 2
                 rmatch =    6.296920
              splitnorm =    0.150000
                 energy =   -0.285079
                kinetic =    0.412067
    potential(screened) =   -0.697146
       potential(ionic) =   -1.441991

POLgen: Perturbative polarization orbital with L=  1

POLgen: Polarization orbital for state 3s

   izeta = 1
                     rc =    6.619780
                 energy =   -0.010527
                kinetic =    0.579937
    potential(screened) =   -0.590464
       potential(ionic) =   -1.302558
atom: Total number of Sankey-type orbitals:  5

atm_pop: Valence configuration (for local Pseudopot. screening):
 3s( 2.00)                                                            
Vna: chval, zval:    2.00000   2.00000

Vna:  Cut-off radius for the neutral-atom potential:   6.619780
comcore: Pseudo-core radius Rcore=  3.915882

atom: _________________________________________________________________________

<basis_specs>
===============================================================================
O                    Z=   8    Mass=  16.000        Charge= 0.17977+309
Lmxo=1 Lmxkb= 3    BasisType=split      Semic=F
L=0  Nsemic=0  Cnfigmx=2
          i=1  nzeta=2  polorb=0  (2s)
            splnorm:   0.15000    
               vcte:    0.0000    
               rinn:    0.0000    
               qcoe:    0.0000    
               qyuk:    0.0000    
               qwid:   0.10000E-01
                rcs:    0.0000      0.0000    
            lambdas:    1.0000      1.0000    
L=1  Nsemic=0  Cnfigmx=2
          i=1  nzeta=2  polorb=1  (2p)
            splnorm:   0.15000    
               vcte:    0.0000    
               rinn:    0.0000    
               qcoe:    0.0000    
               qyuk:    0.0000    
               qwid:   0.10000E-01
                rcs:    0.0000      0.0000    
            lambdas:    1.0000      1.0000    
-------------------------------------------------------------------------------
L=0  Nkbl=1  erefs: 0.17977+309
L=1  Nkbl=1  erefs: 0.17977+309
L=2  Nkbl=1  erefs: 0.17977+309
L=3  Nkbl=1  erefs: 0.17977+309
===============================================================================
</basis_specs>

atom: Called for O                     (Z =   8)

read_vps: Pseudopotential generation method:
read_vps: ATM3.3    Troullier-Martins                       
Total valence charge:    6.00000

read_vps: Pseudopotential includes a core correction:
read_vps: Pseudo-core for xc-correction

xc_check: Exchange-correlation functional:
xc_check: GGA revPBE
V l=0 = -2*Zval/r beyond r=  1.1278
V l=1 = -2*Zval/r beyond r=  1.1278
V l=2 = -2*Zval/r beyond r=  1.1278
V l=3 = -2*Zval/r beyond r=  1.4665
All V_l potentials equal beyond r=  1.4482
This should be close to max(r_c) in ps generation
All pots = -2*Zval/r beyond r=  1.4665

VLOCAL1: 99.0% of the norm of Vloc inside     20.696 Ry
VLOCAL1: 99.9% of the norm of Vloc inside     47.167 Ry
atom: Maximum radius for 4*pi*r*r*local-pseudopot. charge    1.74697
atom: Maximum radius for r*vlocal+2*Zval:    1.52250

KBgen: Kleinman-Bylander projectors: 
GHOST: No ghost state for L =  0
   l= 0   rc=  1.620715   el= -1.762453   Ekb= 12.304028   kbcos=  0.151877
GHOST: No ghost state for L =  1
   l= 1   rc=  1.600578   el= -0.659331   Ekb=-10.019323   kbcos= -0.441129
GHOST: No ghost state for L =  2
   l= 2   rc=  1.725262   el=  0.001944   Ekb= -2.779253   kbcos= -0.005180
GHOST: No ghost state for L =  3
   l= 3   rc=  2.271458   el=  0.003066   Ekb= -0.634310   kbcos= -0.000917

KBgen: Total number of  Kleinman-Bylander projectors:   16
atom: -------------------------------------------------------------------------

atom: SANKEY-TYPE ORBITALS:
atom: Selected multiple-zeta basis: split     

SPLIT: Orbitals with angular momentum L= 0

SPLIT: Basis orbitals for state 2s

SPLIT: PAO cut-off radius determined from an
SPLIT: energy shift=  0.020000 Ry

   izeta = 1
                 lambda =    1.000000
                     rc =    3.305093
                 energy =   -1.745177
                kinetic =    1.639086
    potential(screened) =   -3.384263
       potential(ionic) =  -11.341506

   izeta = 2
                 rmatch =    2.479194
              splitnorm =    0.150000
                 energy =   -1.484987
                kinetic =    2.489907
    potential(screened) =   -3.974894
       potential(ionic) =  -12.504498

SPLIT: Orbitals with angular momentum L= 1

SPLIT: Basis orbitals for state 2p

SPLIT: PAO cut-off radius determined from an
SPLIT: energy shift=  0.020000 Ry

   izeta = 1
                 lambda =    1.000000
                     rc =    3.937239
                 energy =   -0.641359
                kinetic =    4.976174
    potential(screened) =   -5.617533
       potential(ionic) =  -13.378718

   izeta = 2
                 rmatch =    2.541963
              splitnorm =    0.150000
                 energy =   -0.368830
                kinetic =    7.355874
    potential(screened) =   -7.724704
       potential(ionic) =  -16.349178

POLgen: Perturbative polarization orbital with L=  2

POLgen: Polarization orbital for state 2p

   izeta = 1
                     rc =    3.937239
                 energy =    2.434796
                kinetic =    4.755651
    potential(screened) =   -2.320855
       potential(ionic) =   -8.637972
atom: Total number of Sankey-type orbitals: 13

atm_pop: Valence configuration (for local Pseudopot. screening):
 2s( 2.00)                                                            
 2p( 4.00)                                                            
Vna: chval, zval:    6.00000   6.00000

Vna:  Cut-off radius for the neutral-atom potential:   3.937239
comcore: Pseudo-core radius Rcore=  1.377587

atom: _________________________________________________________________________

prinput: Basis input ----------------------------------------------------------

PAO.BasisType split     

%block ChemicalSpeciesLabel
    1   12 Mg                      # Species index, atomic number, species label
    2    8 O                       # Species index, atomic number, species label
%endblock ChemicalSpeciesLabel

%block PAO.Basis                 # Define Basis set
Mg                    1                    # Species label, number of l-shells
 n=3   0   2 P   1                   # n, l, Nzeta, Polarization, NzetaPol
   6.620      6.297   
   1.000      1.000   
O                     2                    # Species label, number of l-shells
 n=2   0   2                         # n, l, Nzeta 
   3.305      2.479   
   1.000      1.000   
 n=2   1   2 P   1                   # n, l, Nzeta, Polarization, NzetaPol
   3.937      2.542   
   1.000      1.000   
%endblock PAO.Basis

prinput: ----------------------------------------------------------------------

coor:   Atomic-coordinates input format  =     Fractional

siesta: WARNING: XV file not found

siesta: Atomic coordinates (Bohr) and species
siesta:      0.00000   3.57438  47.81576  1        1
siesta:      3.09551   1.78719  47.81576  2        2
siesta:     -3.09860   8.94132  47.81576  1        3
siesta:     -6.19722  14.30828  47.81576  1        4
siesta:      6.19721   3.57438  47.81576  1        5
siesta:      3.09860   8.94132  47.81576  1        6
siesta:     -0.00001  14.30828  47.81576  1        7
siesta:     12.39443   3.57438  47.81576  1        8
siesta:      9.29583   8.94132  47.81576  1        9
siesta:      6.19722  14.30828  47.81576  1       10
siesta:      3.09550  12.52109  47.81576  2       11
siesta:     -0.00310   7.15413  47.81576  2       12
siesta:     -3.10171  12.52109  47.81576  2       13
siesta:      9.29271   1.78719  47.81576  2       14
siesta:      6.19411   7.15413  47.81576  2       15
siesta:     15.48994   1.78719  47.81576  2       16
siesta:     12.39134   7.15413  47.81576  2       17
siesta:      9.29272  12.52109  47.81576  2       18

siesta: System type = slab      

initatomlists: Number of atoms, orbitals, and projectors:     18   162   225

siesta: ******************** Simulation parameters ****************************
siesta:
siesta: The following are some of the parameters of the simulation.
siesta: A complete list of the parameters used, including default values,
siesta: can be found in file out.fdf
siesta:
redata: Spin configuration                          = collinear
redata: Number of spin components                   = 2
redata: Time-Reversal Symmetry                      = T
redata: Spin-spiral                                 = F
redata: Long output                                 =   T
redata: Number of Atomic Species                    =        2
redata: Charge density info will appear in .RHO file
redata: Write Mulliken Pop.                         = Atomic and Orbital charges
redata: Matel table size (NRTAB)                    =     1024
redata: Mesh Cutoff                                 =   300.0000 Ry
redata: Net charge of the system                    =     0.0000 |e|
redata: Min. number of SCF Iter                     =        0
redata: Max. number of SCF Iter                     =      150
redata: SCF convergence failure will abort job
redata: SCF mix quantity                            = Hamiltonian
redata: Mix DM or H after convergence               =   F
redata: Recompute H after scf cycle                 =   F
redata: Mix DM in first SCF step                    =   T
redata: Write Pulay info on disk                    =   F
redata: New DM Mixing Weight                        =     0.2000
redata: New DM Occupancy tolerance                  = 0.000000000001
redata: No kicks to SCF
redata: DM Mixing Weight for Kicks                  =     0.5000
redata: Require Harris convergence for SCF          =   F
redata: Harris energy tolerance for SCF             =     0.000100 eV
redata: Require DM convergence for SCF              =   T
redata: DM tolerance for SCF                        =     0.000100
redata: Require EDM convergence for SCF             =   F
redata: EDM tolerance for SCF                       =     0.001000 eV
redata: Require H convergence for SCF               =   T
redata: Hamiltonian tolerance for SCF               =     0.001000 eV
redata: Require (free) Energy convergence for SCF   =   F
redata: (free) Energy tolerance for SCF             =     0.000100 eV
redata: Antiferro initial spin density              =   F
redata: Using Saved Data (generic)                  =   F
redata: Use continuation files for DM               =   T
redata: Neglect nonoverlap interactions             =   F
redata: Method of Calculation                       = Diagonalization
redata: Electronic Temperature                      =     5.0000 K
redata: Fix the spin of the system                  =   F
redata: Max. number of TDED Iter                    =        1
redata: Number of TDED substeps                     =        3
redata: Dynamics option                             = Force Constants Matrix Calculation
redata: Atomic displ for force constants            =     0.0212  Ang
redata: First atom to move                          =        1
redata: Last atom to move                           =        2
mix.SCF: Pulay mixing                            = Pulay
mix.SCF:    Variant                              = stable
mix.SCF:    History steps                        = 4
mix.SCF:    Linear mixing weight                 =     0.200000
mix.SCF:    Mixing weight                        =     0.200000
mix.SCF:    SVD condition                        = 0.1000E-07
mix.SCF: Spin-component mixing                   all
redata: ***********************************************************************

%block SCF.Mixers
  Pulay
%endblock SCF.Mixers

%block SCF.Mixer.Pulay
  # Mixing method
  method pulay
  variant stable

  # Mixing options
  weight 0.2000
  weight.linear 0.2000
  history 4
%endblock SCF.Mixer.Pulay

DM_history_depth set to one for 'Forces' run
Size of DM history Fstack: 1
Total number of electrons:    72.000000
Total ionic charge:    72.000000

* ProcessorY, Blocksize:    2  24


* Orbital distribution balance (max,min):    42    24

k-point displ. along   1 input, could be:     0.00    0.50
k-point displ. along   2 input, could be:     0.00    0.50
 Kpoints in:           60 . Kpoints trimmed:           56

siesta: k-point coordinates (Bohr**-1) and weights:
siesta:          1 -0.135183E+00 -0.780480E-01  0.000000E+00   0.200000E-01
siesta:          2 -0.101387E+00 -0.585360E-01  0.000000E+00   0.200000E-01
siesta:          3 -0.675915E-01 -0.390240E-01  0.000000E+00   0.200000E-01
siesta:          4 -0.337958E-01 -0.195120E-01  0.000000E+00   0.200000E-01
siesta:          5  0.000000E+00  0.000000E+00  0.000000E+00   0.100000E-01
siesta:          6  0.168979E+00  0.975600E-01  0.000000E+00   0.100000E-01
siesta:          7 -0.135183E+00 -0.390240E-01  0.000000E+00   0.200000E-01
siesta:          8 -0.101387E+00 -0.195120E-01  0.000000E+00   0.200000E-01
siesta:          9 -0.675915E-01  0.208167E-16  0.000000E+00   0.200000E-01
siesta:         10 -0.337958E-01  0.195120E-01  0.000000E+00   0.200000E-01
siesta:         11  0.000000E+00  0.390240E-01  0.000000E+00   0.200000E-01
siesta:         12  0.337958E-01  0.585360E-01  0.000000E+00   0.200000E-01
siesta:         13  0.675915E-01  0.780480E-01  0.000000E+00   0.200000E-01
siesta:         14  0.101387E+00  0.975600E-01  0.000000E+00   0.200000E-01
siesta:         15  0.135183E+00  0.117072E+00  0.000000E+00   0.200000E-01
siesta:         16  0.168979E+00  0.136584E+00  0.000000E+00   0.200000E-01
siesta:         17 -0.135183E+00  0.416334E-16  0.000000E+00   0.200000E-01
siesta:         18 -0.101387E+00  0.195120E-01  0.000000E+00   0.200000E-01
siesta:         19 -0.675915E-01  0.390240E-01  0.000000E+00   0.200000E-01
siesta:         20 -0.337958E-01  0.585360E-01  0.000000E+00   0.200000E-01
siesta:         21  0.000000E+00  0.780480E-01  0.000000E+00   0.200000E-01
siesta:         22  0.337958E-01  0.975600E-01  0.000000E+00   0.200000E-01
siesta:         23  0.675915E-01  0.117072E+00  0.000000E+00   0.200000E-01
siesta:         24  0.101387E+00  0.136584E+00  0.000000E+00   0.200000E-01
siesta:         25  0.135183E+00  0.156096E+00  0.000000E+00   0.200000E-01
siesta:         26  0.168979E+00  0.175608E+00  0.000000E+00   0.200000E-01
siesta:         27 -0.135183E+00  0.390240E-01  0.000000E+00   0.200000E-01
siesta:         28 -0.101387E+00  0.585360E-01  0.000000E+00   0.200000E-01
siesta:         29 -0.675915E-01  0.780480E-01  0.000000E+00   0.200000E-01
siesta:         30 -0.337958E-01  0.975600E-01  0.000000E+00   0.200000E-01
siesta:         31  0.000000E+00  0.117072E+00  0.000000E+00   0.200000E-01
siesta:         32  0.337958E-01  0.136584E+00  0.000000E+00   0.200000E-01
siesta:         33  0.675915E-01  0.156096E+00  0.000000E+00   0.200000E-01
siesta:         34  0.101387E+00  0.175608E+00  0.000000E+00   0.200000E-01
siesta:         35  0.135183E+00  0.195120E+00  0.000000E+00   0.200000E-01
siesta:         36  0.168979E+00  0.214632E+00  0.000000E+00   0.200000E-01
siesta:         37 -0.135183E+00  0.780480E-01  0.000000E+00   0.200000E-01
siesta:         38 -0.101387E+00  0.975600E-01  0.000000E+00   0.200000E-01
siesta:         39 -0.675915E-01  0.117072E+00  0.000000E+00   0.200000E-01
siesta:         40 -0.337958E-01  0.136584E+00  0.000000E+00   0.200000E-01
siesta:         41  0.000000E+00  0.156096E+00  0.000000E+00   0.200000E-01
siesta:         42  0.337958E-01  0.175608E+00  0.000000E+00   0.200000E-01
siesta:         43  0.675915E-01  0.195120E+00  0.000000E+00   0.200000E-01
siesta:         44  0.101387E+00  0.214632E+00  0.000000E+00   0.200000E-01
siesta:         45  0.135183E+00  0.234144E+00  0.000000E+00   0.200000E-01
siesta:         46  0.168979E+00  0.253656E+00  0.000000E+00   0.200000E-01
siesta:         47 -0.135183E+00  0.117072E+00  0.000000E+00   0.100000E-01
siesta:         48 -0.101387E+00  0.136584E+00  0.000000E+00   0.100000E-01
siesta:         49 -0.675915E-01  0.156096E+00  0.000000E+00   0.100000E-01
siesta:         50 -0.337958E-01  0.175608E+00  0.000000E+00   0.100000E-01
siesta:         51  0.000000E+00  0.195120E+00  0.000000E+00   0.100000E-01
siesta:         52  0.337958E-01  0.214632E+00  0.000000E+00   0.100000E-01
siesta:         53  0.675915E-01  0.234144E+00  0.000000E+00   0.100000E-01
siesta:         54  0.101387E+00  0.253656E+00  0.000000E+00   0.100000E-01
siesta:         55  0.135183E+00  0.273168E+00  0.000000E+00   0.100000E-01
siesta:         56  0.168979E+00  0.292680E+00  0.000000E+00   0.100000E-01

siesta: k-grid: Number of k-points =        56
siesta: k-points from Monkhorst-Pack grid
siesta: k-cutoff (effective) =    25.303 Ang
siesta: k-point supercell and displacements
siesta: k-grid:   10   0   0      0.000
siesta: k-grid:    0  10   0      0.000
siesta: k-grid:    0   0   1      0.000

diag: Algorithm                                     = D&C
diag: Parallel over k                               =   F
diag: Use parallel 2D distribution                  =   T
diag: Parallel block-size                           = 24
diag: Parallel distribution                         =     2 x     3
diag: Used triangular part                          = Lower
diag: Absolute tolerance                            =  0.100E-15
diag: Orthogonalization factor                      =  0.100E-05
diag: Memory factor                                 =  1.0000
Using current reciprocal lattice vectors for BandLinesScale
Beware any cell changes by the end of the run
Using current reciprocal lattice vectors for BandLinesScale
Beware any cell changes by the end of the run

superc: Internal auxiliary supercell:     3 x     3 x     1  =       9
superc: Number of atoms, orbitals, and projectors:    162   1458   2025


ts: **************************************************************
ts: Save H and S matrices                           =    F
ts: Save DM and EDM matrices                        =    F
ts: Fix Hartree potential                           =    F
ts: Only save the overlap matrix S                  =    F
ts: **************************************************************

************************ Begin: TS CHECKS AND WARNINGS ************************
************************ End: TS CHECKS AND WARNINGS **************************


                     ====================================
                        Begin FC step =      0
                        Undisplaced coordinates
                     ====================================

outcoor: Atomic coordinates (fractional):                   
    0.11100000    0.22200000    0.50000000   1       1  Mg
    0.22200000    0.11100000    0.50000000   2       2  O
    0.11100000    0.55533300    0.50000000   1       3  Mg
    0.11100000    0.88866700    0.50000000   1       4  Mg
    0.44433300    0.22200000    0.50000000   1       5  Mg
    0.44433300    0.55533300    0.50000000   1       6  Mg
    0.44433300    0.88866700    0.50000000   1       7  Mg
    0.77766700    0.22200000    0.50000000   1       8  Mg
    0.77766700    0.55533300    0.50000000   1       9  Mg
    0.77766700    0.88866700    0.50000000   1      10  Mg
    0.55533300    0.77766700    0.50000000   2      11  O
    0.22200000    0.44433300    0.50000000   2      12  O
    0.22200000    0.77766700    0.50000000   2      13  O
    0.55533300    0.11100000    0.50000000   2      14  O
    0.55533300    0.44433300    0.50000000   2      15  O
    0.88866700    0.11100000    0.50000000   2      16  O
    0.88866700    0.44433300    0.50000000   2      17  O
    0.88866700    0.77766700    0.50000000   2      18  O

superc: Internal auxiliary supercell:     3 x     3 x     1  =       9
superc: Number of atoms, orbitals, and projectors:    162   1458   2025

outcell: Unit cell vectors (Ang):
        9.838268    0.000000    0.000000
       -4.919134    8.520190    0.000000
        0.000000    0.000000   50.606000

outcell: Cell vector modules (Ang)   :    9.838268    9.838268   50.606000
outcell: Cell angles (23,13,12) (deg):     90.0000     90.0000    120.0000
outcell: Cell volume (Ang**3)        :   4241.9926
<dSpData1D:S at geom step 0
  <sparsity:sparsity for geom step 0
    nrows_g=162 nrows=42 sparsity=.4257 nnzs=11171, refcount: 7>
  <dData1D:(new from dSpData1D) n=11171, refcount: 1>
refcount: 1>
new_DM -- step:     1
Initializing Density Matrix...

Attempting to read DM from file... Failed...
DM filled with atomic data:
<dSpData2D:DM initialized from atoms
  <sparsity:sparsity for geom step 0
    nrows_g=162 nrows=42 sparsity=.4257 nnzs=11171, refcount: 8>
  <dData2D:DM n=11171 m=2, refcount: 1>
refcount: 1>
     spin moment: S , {S} =   18.00000       0.0       0.0  18.00000
No. of atoms with KB's overlaping orbs in proc 0. Max # of overlaps:      42      98
New grid distribution:   1
           1       1:   45    1:   23    1:   90
           2       1:   45    1:   23   91:  180
           3       1:   45    1:   23  181:  270
           4       1:   45   24:   45    1:   90
           5       1:   45   24:   45   91:  180
           6       1:   45   24:   45  181:  270

InitMesh: MESH =    90 x    90 x   540 =     4374000
InitMesh: (bp) =    45 x    45 x   270 =      546750
InitMesh: Mesh cutoff (required, used) =   300.000   308.381 Ry
ExtMesh (bp) on 0 =   121 x    99 x   166 =     1988514
New grid distribution:   2
           1       1:   45    1:   45  130:  132
           2       1:   45    1:   45  136:  138
           3       1:   45    1:   45  142:  270
           4       1:   45    1:   45  133:  135
           5       1:   45    1:   45    1:  129
           6       1:   45    1:   45  139:  141
New grid distribution:   3
           1       1:   45    1:   45  124:  129
           2       1:   45    1:   45  136:  141
           3       1:   45    1:   45  148:  270
           4       1:   45    1:   45  130:  135
           5       1:   45    1:   45    1:  123
           6       1:   45    1:   45  142:  147
Setting up quadratic distribution...
ExtMesh (bp) on 0 =   121 x   121 x    79 =     1156639
PhiOnMesh: Number of (b)points on node 0 =                 6075
PhiOnMesh: nlist on node 0 =               199539

stepf: Fermi-Dirac step function

siesta: Program's energy decomposition (eV):
siesta: Ebs     =      -304.397170
siesta: Eions   =      5767.274450
siesta: Ena     =       593.091301
siesta: Ekin    =      3359.385986
siesta: Enl     =     -1125.444242
siesta: Eso     =         0.000000
siesta: Eldau   =         0.000000
siesta: DEna    =      -150.728821
siesta: DUscf   =        34.590729
siesta: DUext   =         0.000000
siesta: Enegf   =         0.000000
siesta: Exc     =     -1187.233187
siesta: eta*DQ  =         0.000000
siesta: Emadel  =         0.000000
siesta: Emeta   =         0.000000
siesta: Emolmec =         0.000000
siesta: Ekinion =         0.000000
siesta: Eharris =     -4233.871703
siesta: Etot    =     -4243.612683
siesta: FreeEng =     -4243.612683

        iscf     Eharris(eV)        E_KS(eV)     FreeEng(eV)     dDmax    Ef(eV) dHmax(eV)
   scf:    1    -4233.871703    -4243.612683    -4243.612683  0.989986 -5.853706 13.149874
     spin moment: S , {S} =    0.00000       0.0       0.0   0.00000
timer: Routine,Calls,Time,% = IterSCF        1       6.167  61.77
   scf:    2    -4266.492778    -4256.903281    -4256.903281  0.090651 -3.906060  6.593955
     spin moment: S , {S} =    0.00000       0.0       0.0   0.00000
   scf:    3    -4260.090907    -4259.824728    -4259.824728  0.065367 -2.035996  0.966805
     spin moment: S , {S} =    0.00000       0.0       0.0   0.00000
   scf:    4    -4260.047099    -4260.144390    -4260.144390  0.038309 -1.325232  1.487028
     spin moment: S , {S} =    0.00000       0.0       0.0   0.00000
   scf:    5    -4260.084026    -4260.368622    -4260.368622  0.025424 -0.745480  0.923396
     spin moment: S , {S} =    0.00000       0.0       0.0   0.00000
   scf:    6    -4260.474782    -4260.477076    -4260.477076  0.024968 -1.054231  0.395579
     spin moment: S , {S} =   -0.00000       0.0       0.0  -0.00000
   scf:    7    -4260.516357    -4260.501405    -4260.501405  0.007516 -0.952431  0.009298
     spin moment: S , {S} =    0.00000       0.0       0.0   0.00000
   scf:    8    -4260.501418    -4260.501413    -4260.501413  0.000121 -0.950841  0.004197
     spin moment: S , {S} =    0.00000       0.0       0.0   0.00000
   scf:    9    -4260.501429    -4260.501419    -4260.501419  0.000351 -0.950731  0.001936
     spin moment: S , {S} =   -0.00000       0.0       0.0  -0.00000
   scf:   10    -4260.501422    -4260.501420    -4260.501420  0.000101 -0.950493  0.001647
     spin moment: S , {S} =   -0.00000       0.0       0.0  -0.00000
   scf:   11    -4260.501423    -4260.501422    -4260.501422  0.000090 -0.950073  0.000856
     spin moment: S , {S} =   -0.00000       0.0       0.0  -0.00000

SCF Convergence by DM+H criterion
max |DM_out - DM_in|         :     0.0000897649
max |H_out - H_in|      (eV) :     0.0008561178
SCF cycle converged after 11 iterations

Using DM_out to compute the final energy and forces
No. of atoms with KB's overlaping orbs in proc 0. Max # of overlaps:      42      98

siesta: E_KS(eV) =            -4260.5014

siesta: E_KS - E_eggbox =     -4260.5014
     spin moment: S , {S} =   -0.00000       0.0       0.0  -0.00000

siesta: Atomic forces (eV/Ang):
     1   -0.030300    0.025732    0.000000
     2    0.028060   -0.018798   -0.000000
     3   -0.030302    0.025855    0.000000
     4   -0.030301    0.025728    0.000000
     5   -0.030298    0.025734    0.000000
     6   -0.030300    0.025857    0.000000
     7   -0.030299    0.025731    0.000000
     8   -0.030407    0.025672    0.000000
     9   -0.030409    0.025795    0.000000
    10   -0.030408    0.025669    0.000000
    11    0.028186   -0.018870   -0.000000
    12    0.028055   -0.018788   -0.000000
    13    0.028069   -0.018928   -0.000000
    14    0.028177   -0.018741   -0.000000
    15    0.028171   -0.018731   -0.000000
    16    0.028049   -0.018798   -0.000000
    17    0.028043   -0.018788   -0.000000
    18    0.028057   -0.018928   -0.000000
----------------------------------------
   Tot   -0.020157    0.062402    0.000000
----------------------------------------
   Max    0.030409
   Res    0.021319    sqrt( Sum f_i^2 / 3N )
----------------------------------------
   Max    0.030409    constrained

Stress-tensor-Voigt (kbar):       -1.22       -1.20        0.01        0.08       -0.00        0.00
(Free)E + p*V (eV/cell)    -4258.3728
Target enthalpy (eV/cell)    -4260.5014

mulliken: Atomic and Orbital Populations:

mulliken: Spin UP 

Species: Mg                  
Atom  Qatom  Qorb
               3s      3s      3Ppy    3Ppz    3Ppx    
   1  0.607   0.106   0.119   0.128   0.127   0.128
   3  0.607   0.106   0.119   0.128   0.127   0.128
   4  0.607   0.106   0.119   0.128   0.127   0.128
   5  0.607   0.106   0.119   0.128   0.127   0.128
   6  0.607   0.106   0.119   0.128   0.127   0.128
   7  0.607   0.106   0.119   0.128   0.127   0.128
   8  0.607   0.106   0.119   0.128   0.127   0.128
   9  0.607   0.106   0.119   0.128   0.127   0.128
  10  0.607   0.106   0.119   0.128   0.127   0.128

Species: O                   
Atom  Qatom  Qorb
               2s      2s      2py     2pz     2px     2py     2pz     2px     
               3Pdxy   3Pdyz   3Pdz2   3Pdxz   3Pdx2-y2
   2  3.393   0.870   0.001   0.917   1.028   0.917  -0.093  -0.155  -0.093
              0.000  -0.000   0.000  -0.000   0.000
  11  3.393   0.870   0.001   0.917   1.028   0.917  -0.093  -0.155  -0.093
              0.000  -0.000   0.000  -0.000   0.000
  12  3.393   0.870   0.001   0.917   1.028   0.917  -0.093  -0.155  -0.093
              0.000  -0.000   0.000  -0.000   0.000
  13  3.393   0.870   0.001   0.917   1.028   0.917  -0.093  -0.155  -0.093
              0.000  -0.000   0.000  -0.000   0.000
  14  3.393   0.870   0.001   0.917   1.028   0.917  -0.093  -0.155  -0.093
              0.000  -0.000   0.000  -0.000   0.000
  15  3.393   0.870   0.001   0.917   1.028   0.917  -0.093  -0.155  -0.093
              0.000  -0.000   0.000  -0.000   0.000
  16  3.393   0.870   0.001   0.917   1.028   0.917  -0.093  -0.155  -0.093
              0.000  -0.000   0.000  -0.000   0.000
  17  3.393   0.870   0.001   0.917   1.028   0.917  -0.093  -0.155  -0.093
              0.000  -0.000   0.000  -0.000   0.000
  18  3.393   0.870   0.001   0.917   1.028   0.917  -0.093  -0.155  -0.093
              0.000  -0.000   0.000  -0.000   0.000

mulliken: Qtot =       36.000

mulliken: Spin DOWN 

Species: Mg                  
Atom  Qatom  Qorb
               3s      3s      3Ppy    3Ppz    3Ppx    
   1  0.607   0.106   0.119   0.128   0.127   0.128
   3  0.607   0.106   0.119   0.128   0.127   0.128
   4  0.607   0.106   0.119   0.128   0.127   0.128
   5  0.607   0.106   0.119   0.128   0.127   0.128
   6  0.607   0.106   0.119   0.128   0.127   0.128
   7  0.607   0.106   0.119   0.128   0.127   0.128
   8  0.607   0.106   0.119   0.128   0.127   0.128
   9  0.607   0.106   0.119   0.128   0.127   0.128
  10  0.607   0.106   0.119   0.128   0.127   0.128

Species: O                   
Atom  Qatom  Qorb
               2s      2s      2py     2pz     2px     2py     2pz     2px     
               3Pdxy   3Pdyz   3Pdz2   3Pdxz   3Pdx2-y2
   2  3.393   0.870   0.001   0.917   1.028   0.918  -0.093  -0.155  -0.093
              0.000  -0.000   0.000  -0.000   0.000
  11  3.393   0.870   0.001   0.917   1.028   0.918  -0.093  -0.155  -0.093
              0.000  -0.000   0.000  -0.000   0.000
  12  3.393   0.870   0.001   0.917   1.028   0.918  -0.093  -0.155  -0.093
              0.000  -0.000   0.000  -0.000   0.000
  13  3.393   0.870   0.001   0.917   1.028   0.918  -0.093  -0.155  -0.093
              0.000  -0.000   0.000  -0.000   0.000
  14  3.393   0.870   0.001   0.917   1.028   0.918  -0.093  -0.155  -0.093
              0.000  -0.000   0.000  -0.000   0.000
  15  3.393   0.870   0.001   0.917   1.028   0.918  -0.093  -0.155  -0.093
              0.000  -0.000   0.000  -0.000   0.000
  16  3.393   0.870   0.001   0.917   1.028   0.918  -0.093  -0.155  -0.093
              0.000  -0.000   0.000  -0.000   0.000
  17  3.393   0.870   0.001   0.917   1.028   0.918  -0.093  -0.155  -0.093
              0.000  -0.000   0.000  -0.000   0.000
  18  3.393   0.870   0.001   0.917   1.028   0.918  -0.093  -0.155  -0.093
              0.000  -0.000   0.000  -0.000   0.000

mulliken: Qtot =       36.000

                     ====================================
                        Begin FC step =      1
                         displace atom 1
                         in direction 1 by -0.021167 Ang
                     ====================================

outcoor: Atomic coordinates (fractional):                   
    0.10884850    0.22200000    0.50000000   1       1  Mg
    0.22200000    0.11100000    0.50000000   2       2  O
    0.11100000    0.55533300    0.50000000   1       3  Mg
    0.11100000    0.88866700    0.50000000   1       4  Mg
    0.44433300    0.22200000    0.50000000   1       5  Mg
    0.44433300    0.55533300    0.50000000   1       6  Mg
    0.44433300    0.88866700    0.50000000   1       7  Mg
    0.77766700    0.22200000    0.50000000   1       8  Mg
    0.77766700    0.55533300    0.50000000   1       9  Mg
    0.77766700    0.88866700    0.50000000   1      10  Mg
    0.55533300    0.77766700    0.50000000   2      11  O
    0.22200000    0.44433300    0.50000000   2      12  O
    0.22200000    0.77766700    0.50000000   2      13  O
    0.55533300    0.11100000    0.50000000   2      14  O
    0.55533300    0.44433300    0.50000000   2      15  O
    0.88866700    0.11100000    0.50000000   2      16  O
    0.88866700    0.44433300    0.50000000   2      17  O
    0.88866700    0.77766700    0.50000000   2      18  O

superc: Internal auxiliary supercell:     3 x     3 x     1  =       9
superc: Number of atoms, orbitals, and projectors:    162   1458   2025

outcell: Unit cell vectors (Ang):
        9.838268    0.000000    0.000000
       -4.919134    8.520190    0.000000
        0.000000    0.000000   50.606000

outcell: Cell vector modules (Ang)   :    9.838268    9.838268   50.606000
outcell: Cell angles (23,13,12) (deg):     90.0000     90.0000    120.0000
outcell: Cell volume (Ang**3)        :   4241.9926
<dSpData1D:S at geom step 1
  <sparsity:sparsity for geom step 1
    nrows_g=162 nrows=42 sparsity=.4257 nnzs=11171, refcount: 7>
  <dData1D:(new from dSpData1D) n=11171, refcount: 1>
refcount: 1>
new_DM -- step:     2
Initializing Density Matrix...

Attempting to read DM from file... Succeeded...
DM from file:
<dSpData2D:IO-DM: MgO-3x3x1-2V.DM
  <sparsity:IO-DM: MgO-3x3x1-2V.DM
    nrows_g=162 nrows=42 sparsity=.4257 nnzs=11171, refcount: 1>
  <dData2D:(new from dSpData2D) n=11171 m=2, refcount: 1>
refcount: 1>
DM to be used:
<dSpData2D:Re-structured SpM
  <sparsity:sparsity for geom step 1
    nrows_g=162 nrows=42 sparsity=.4257 nnzs=11171, refcount: 9>
  <dData2D:(new in restruct) n=11171 m=2, refcount: 1>
refcount: 1>
     spin moment: S , {S} =   -0.00000       0.0       0.0  -0.00000
No. of atoms with KB's overlaping orbs in proc 0. Max # of overlaps:      42      98
New grid distribution:   1
           1       1:   45    1:   23    1:   90
           2       1:   45    1:   23   91:  180
           3       1:   45    1:   23  181:  270
           4       1:   45   24:   45    1:   90
           5       1:   45   24:   45   91:  180
           6       1:   45   24:   45  181:  270

InitMesh: MESH =    90 x    90 x   540 =     4374000
InitMesh: (bp) =    45 x    45 x   270 =      546750
InitMesh: Mesh cutoff (required, used) =   300.000   308.381 Ry
ExtMesh (bp) on 0 =   121 x    99 x   166 =     1988514
New grid distribution:   2
           1       1:   45    1:   45  130:  132
           2       1:   45    1:   45  136:  138
           3       1:   45    1:   45  142:  270
           4       1:   45    1:   45  133:  135
           5       1:   45    1:   45    1:  129
           6       1:   45    1:   45  139:  141
New grid distribution:   3
           1       1:   45    1:   45  124:  129
           2       1:   45    1:   45  136:  141
           3       1:   45    1:   45  148:  270
           4       1:   45    1:   45  130:  135
           5       1:   45    1:   45    1:  123
           6       1:   45    1:   45  142:  147
Setting up quadratic distribution...
ExtMesh (bp) on 0 =   121 x   121 x    79 =     1156639
PhiOnMesh: Number of (b)points on node 0 =                 6075
PhiOnMesh: nlist on node 0 =               199528

        iscf     Eharris(eV)        E_KS(eV)     FreeEng(eV)     dDmax    Ef(eV) dHmax(eV)
   scf:    1    -4260.496330    -4260.496679    -4260.496679  0.003955 -0.953057  0.040052
     spin moment: S , {S} =   -0.00000       0.0       0.0  -0.00000
   scf:    2    -4260.495529    -4260.496374    -4260.496374  0.001380 -0.951020  0.107713
     spin moment: S , {S} =   -0.00000       0.0       0.0  -0.00000
   scf:    3    -4260.496850    -4260.496754    -4260.496754  0.000956 -0.952454  0.005273
     spin moment: S , {S} =   -0.00000       0.0       0.0  -0.00000
   scf:    4    -4260.496763    -4260.496759    -4260.496759  0.000277 -0.952544  0.001613
     spin moment: S , {S} =   -0.00000       0.0       0.0  -0.00000
   scf:    5    -4260.496760    -4260.496759    -4260.496759  0.000080 -0.952594  0.000646
     spin moment: S , {S} =   -0.00000       0.0       0.0  -0.00000

SCF Convergence by DM+H criterion
max |DM_out - DM_in|         :     0.0000797597
max |H_out - H_in|      (eV) :     0.0006455860
SCF cycle converged after 5 iterations

Using DM_out to compute the final energy and forces
No. of atoms with KB's overlaping orbs in proc 0. Max # of overlaps:      42      98

siesta: E_KS(eV) =            -4260.4968
     spin moment: S , {S} =   -0.00000       0.0       0.0  -0.00000

siesta: Atomic forces (eV/Ang):
     1    0.467397    0.018150    0.000000
     2   -0.161468    0.071083   -0.000000
     3   -0.028956    0.046689    0.000000
     4   -0.029006    0.052503    0.000000
     5   -0.069745    0.022513    0.000000
     6   -0.029095    0.005338    0.000000
     7   -0.037989    0.025705    0.000000
     8   -0.070530    0.028661    0.000000
     9   -0.038333    0.025909    0.000000
    10   -0.029086   -0.001148    0.000000
    11    0.032110   -0.011359   -0.000000
    12   -0.004214   -0.020115   -0.000000
    13    0.031946   -0.026511   -0.000000
    14    0.045147   -0.018655   -0.000000
    15    0.038116   -0.008188   -0.000000
    16   -0.178188   -0.120302   -0.000000
    17    0.037916   -0.029424   -0.000000
    18    0.019588   -0.018984   -0.000000
----------------------------------------
   Tot   -0.004391    0.041863    0.000000
----------------------------------------
   Max    0.467397
   Res    0.078191    sqrt( Sum f_i^2 / 3N )
----------------------------------------
   Max    0.467397    constrained

Stress-tensor-Voigt (kbar):       -1.27       -1.22        0.01       -0.03       -0.00       -0.00
(Free)E + p*V (eV/cell)    -4258.3104
Target enthalpy (eV/cell)    -4260.4968

mulliken: Atomic and Orbital Populations:

mulliken: Spin UP 

Species: Mg                  
Atom  Qatom  Qorb
               3s      3s      3Ppy    3Ppz    3Ppx    
   1  0.607   0.106   0.119   0.128   0.127   0.128
   3  0.608   0.106   0.119   0.128   0.127   0.128
   4  0.608   0.106   0.119   0.128   0.127   0.128
   5  0.607   0.106   0.119   0.128   0.127   0.128
   6  0.606   0.106   0.119   0.128   0.127   0.128
   7  0.607   0.106   0.119   0.128   0.127   0.128
   8  0.607   0.106   0.119   0.128   0.127   0.128
   9  0.607   0.106   0.119   0.128   0.127   0.128
  10  0.606   0.105   0.119   0.128   0.127   0.128

Species: O                   
Atom  Qatom  Qorb
               2s      2s      2py     2pz     2px     2py     2pz     2px     
               3Pdxy   3Pdyz   3Pdz2   3Pdxz   3Pdx2-y2
   2  3.390   0.869   0.002   0.916   1.028   0.916  -0.092  -0.155  -0.093
              0.000  -0.000   0.000  -0.000   0.000
  11  3.393   0.870   0.001   0.918   1.028   0.918  -0.093  -0.155  -0.093
              0.000  -0.000   0.000  -0.000   0.000
  12  3.393   0.870   0.001   0.917   1.028   0.917  -0.093  -0.155  -0.093
              0.000  -0.000   0.000  -0.000   0.000
  13  3.393   0.870   0.001   0.917   1.028   0.917  -0.093  -0.155  -0.093
              0.000  -0.000   0.000  -0.000   0.000
  14  3.393   0.870   0.001   0.917   1.028   0.917  -0.093  -0.155  -0.093
              0.000  -0.000   0.000  -0.000   0.000
  15  3.393   0.870   0.001   0.918   1.028   0.918  -0.093  -0.155  -0.093
              0.000  -0.000   0.000  -0.000   0.000
  16  3.395   0.871   0.001   0.919   1.028   0.919  -0.094  -0.155  -0.093
              0.000  -0.000   0.000  -0.000   0.000
  17  3.393   0.870   0.001   0.917   1.028   0.917  -0.093  -0.155  -0.093
              0.000  -0.000   0.000  -0.000   0.000
  18  3.393   0.870   0.001   0.917   1.028   0.917  -0.093  -0.155  -0.093
              0.000  -0.000   0.000  -0.000   0.000

mulliken: Qtot =       36.000

mulliken: Spin DOWN 

Species: Mg                  
Atom  Qatom  Qorb
               3s      3s      3Ppy    3Ppz    3Ppx    
   1  0.607   0.106   0.119   0.128   0.127   0.128
   3  0.608   0.106   0.119   0.128   0.127   0.128
   4  0.608   0.106   0.119   0.128   0.127   0.128
   5  0.607   0.106   0.119   0.128   0.127   0.128
   6  0.606   0.106   0.119   0.128   0.127   0.128
   7  0.607   0.106   0.119   0.128   0.127   0.128
   8  0.607   0.106   0.119   0.128   0.127   0.128
   9  0.607   0.106   0.119   0.128   0.127   0.128
  10  0.606   0.105   0.119   0.128   0.127   0.128

Species: O                   
Atom  Qatom  Qorb
               2s      2s      2py     2pz     2px     2py     2pz     2px     
               3Pdxy   3Pdyz   3Pdz2   3Pdxz   3Pdx2-y2
   2  3.390   0.869   0.002   0.916   1.028   0.916  -0.092  -0.155  -0.093
              0.000  -0.000   0.000  -0.000   0.000
  11  3.393   0.870   0.001   0.918   1.028   0.918  -0.093  -0.155  -0.093
              0.000  -0.000   0.000  -0.000   0.000
  12  3.393   0.870   0.001   0.917   1.028   0.917  -0.093  -0.155  -0.093
              0.000  -0.000   0.000  -0.000   0.000
  13  3.393   0.870   0.001   0.917   1.028   0.917  -0.093  -0.155  -0.093
              0.000  -0.000   0.000  -0.000   0.000
  14  3.393   0.870   0.001   0.917   1.028   0.917  -0.093  -0.155  -0.093
              0.000  -0.000   0.000  -0.000   0.000
  15  3.393   0.870   0.001   0.918   1.028   0.918  -0.093  -0.155  -0.093
              0.000  -0.000   0.000  -0.000   0.000
  16  3.395   0.871   0.001   0.919   1.028   0.919  -0.094  -0.155  -0.093
              0.000  -0.000   0.000  -0.000   0.000
  17  3.393   0.870   0.001   0.917   1.028   0.917  -0.093  -0.155  -0.093
              0.000  -0.000   0.000  -0.000   0.000
  18  3.393   0.870   0.001   0.917   1.028   0.917  -0.093  -0.155  -0.093
              0.000  -0.000   0.000  -0.000   0.000

mulliken: Qtot =       36.000

                     ====================================
                        Begin FC step =      2
                         displace atom 1
                         in direction 1 by  0.021167 Ang
                     ====================================

outcoor: Atomic coordinates (fractional):                   
    0.11315150    0.22200000    0.50000000   1       1  Mg
    0.22200000    0.11100000    0.50000000   2       2  O
    0.11100000    0.55533300    0.50000000   1       3  Mg
    0.11100000    0.88866700    0.50000000   1       4  Mg
    0.44433300    0.22200000    0.50000000   1       5  Mg
    0.44433300    0.55533300    0.50000000   1       6  Mg
    0.44433300    0.88866700    0.50000000   1       7  Mg
    0.77766700    0.22200000    0.50000000   1       8  Mg
    0.77766700    0.55533300    0.50000000   1       9  Mg
    0.77766700    0.88866700    0.50000000   1      10  Mg
    0.55533300    0.77766700    0.50000000   2      11  O
    0.22200000    0.44433300    0.50000000   2      12  O
    0.22200000    0.77766700    0.50000000   2      13  O
    0.55533300    0.11100000    0.50000000   2      14  O
    0.55533300    0.44433300    0.50000000   2      15  O
    0.88866700    0.11100000    0.50000000   2      16  O
    0.88866700    0.44433300    0.50000000   2      17  O
    0.88866700    0.77766700    0.50000000   2      18  O

superc: Internal auxiliary supercell:     3 x     3 x     1  =       9
superc: Number of atoms, orbitals, and projectors:    162   1458   2025

outcell: Unit cell vectors (Ang):
        9.838268    0.000000    0.000000
       -4.919134    8.520190    0.000000
        0.000000    0.000000   50.606000

outcell: Cell vector modules (Ang)   :    9.838268    9.838268   50.606000
outcell: Cell angles (23,13,12) (deg):     90.0000     90.0000    120.0000
outcell: Cell volume (Ang**3)        :   4241.9926
<dSpData1D:S at geom step 2
  <sparsity:sparsity for geom step 2
    nrows_g=162 nrows=42 sparsity=.4232 nnzs=11106, refcount: 7>
  <dData1D:(new from dSpData1D) n=11106, refcount: 1>
refcount: 1>
new_DM -- step:     3
Initializing Density Matrix...

Attempting to read DM from file... Succeeded...
DM from file:
<dSpData2D:IO-DM: MgO-3x3x1-2V.DM
  <sparsity:IO-DM: MgO-3x3x1-2V.DM
    nrows_g=162 nrows=42 sparsity=.4257 nnzs=11171, refcount: 1>
  <dData2D:(new from dSpData2D) n=11171 m=2, refcount: 1>
refcount: 1>
DM to be used:
<dSpData2D:Re-structured SpM
  <sparsity:sparsity for geom step 2
    nrows_g=162 nrows=42 sparsity=.4232 nnzs=11106, refcount: 9>
  <dData2D:(new in restruct) n=11106 m=2, refcount: 1>
refcount: 1>
     spin moment: S , {S} =   -0.00000       0.0       0.0  -0.00000
No. of atoms with KB's overlaping orbs in proc 0. Max # of overlaps:      41      98
New grid distribution:   1
           1       1:   45    1:   23    1:   90
           2       1:   45    1:   23   91:  180
           3       1:   45    1:   23  181:  270
           4       1:   45   24:   45    1:   90
           5       1:   45   24:   45   91:  180
           6       1:   45   24:   45  181:  270

InitMesh: MESH =    90 x    90 x   540 =     4374000
InitMesh: (bp) =    45 x    45 x   270 =      546750
InitMesh: Mesh cutoff (required, used) =   300.000   308.381 Ry
ExtMesh (bp) on 0 =   121 x    99 x   166 =     1988514
New grid distribution:   2
           1       1:   45    1:   45  130:  132
           2       1:   45    1:   45  136:  138
           3       1:   45    1:   45  142:  270
           4       1:   45    1:   45  133:  135
           5       1:   45    1:   45    1:  129
           6       1:   45    1:   45  139:  141
New grid distribution:   3
           1       1:   45    1:   45  124:  129
           2       1:   45    1:   45  136:  141
           3       1:   45    1:   45  148:  270
           4       1:   45    1:   45  130:  135
           5       1:   45    1:   45    1:  123
           6       1:   45    1:   45  142:  147
Setting up quadratic distribution...
ExtMesh (bp) on 0 =   121 x   121 x    79 =     1156639
PhiOnMesh: Number of (b)points on node 0 =                 6075
PhiOnMesh: nlist on node 0 =               199548

        iscf     Eharris(eV)        E_KS(eV)     FreeEng(eV)     dDmax    Ef(eV) dHmax(eV)
   scf:    1    -4260.494966    -4260.495394    -4260.495394  0.003986 -0.948868  0.041129
     spin moment: S , {S} =   -0.00000       0.0       0.0  -0.00000
   scf:    2    -4260.494233    -4260.495085    -4260.495085  0.001411 -0.946709  0.110622
     spin moment: S , {S} =   -0.00000       0.0       0.0  -0.00000
   scf:    3    -4260.495565    -4260.495469    -4260.495469  0.000978 -0.948228  0.005253
     spin moment: S , {S} =   -0.00000       0.0       0.0  -0.00000
   scf:    4    -4260.495477    -4260.495474    -4260.495474  0.000276 -0.948317  0.001620
     spin moment: S , {S} =   -0.00000       0.0       0.0  -0.00000
   scf:    5    -4260.495474    -4260.495474    -4260.495474  0.000079 -0.948369  0.000651
     spin moment: S , {S} =   -0.00000       0.0       0.0  -0.00000

SCF Convergence by DM+H criterion
max |DM_out - DM_in|         :     0.0000794264
max |H_out - H_in|      (eV) :     0.0006509461
SCF cycle converged after 5 iterations

Using DM_out to compute the final energy and forces
No. of atoms with KB's overlaping orbs in proc 0. Max # of overlaps:      41      98

siesta: E_KS(eV) =            -4260.4955
     spin moment: S , {S} =   -0.00000       0.0       0.0  -0.00000

siesta: Atomic forces (eV/Ang):
     1   -0.528287    0.022961    0.000000
     2    0.237468   -0.122551   -0.000000
     3   -0.031449    0.005356    0.000000
     4   -0.031566   -0.001079    0.000000
     5    0.009825    0.028674    0.000000
     6   -0.031703    0.046715    0.000000
     7   -0.022610    0.025709    0.000000
     8    0.009038    0.022401    0.000000
     9   -0.022484    0.025914    0.000000
    10   -0.031761    0.052451    0.000000
    11    0.024330   -0.026451   -0.000000
    12    0.060330   -0.020592   -0.000000
    13    0.024129   -0.011417   -0.000000
    14    0.011209   -0.018619   -0.000000
    15    0.018262   -0.029400   -0.000000
    16    0.214598    0.069029   -0.000000
    17    0.018113   -0.008272   -0.000000
    18    0.036526   -0.019000   -0.000000
----------------------------------------
   Tot   -0.036035    0.041830   -0.000000
----------------------------------------
   Max    0.528287
   Res    0.088661    sqrt( Sum f_i^2 / 3N )
----------------------------------------
   Max    0.528287    constrained

Stress-tensor-Voigt (kbar):       -1.27       -1.22        0.01        0.20       -0.00        0.00
(Free)E + p*V (eV/cell)    -4258.3056
Target enthalpy (eV/cell)    -4260.4955

mulliken: Atomic and Orbital Populations:

mulliken: Spin UP 

Species: Mg                  
Atom  Qatom  Qorb
               3s      3s      3Ppy    3Ppz    3Ppx    
   1  0.607   0.106   0.119   0.128   0.127   0.128
   3  0.606   0.106   0.119   0.128   0.127   0.128
   4  0.606   0.105   0.119   0.128   0.127   0.128
   5  0.607   0.106   0.119   0.128   0.127   0.128
   6  0.608   0.106   0.119   0.128   0.127   0.128
   7  0.607   0.106   0.119   0.128   0.127   0.128
   8  0.607   0.106   0.119   0.128   0.127   0.128
   9  0.607   0.106   0.119   0.128   0.127   0.128
  10  0.608   0.106   0.119   0.128   0.127   0.128

Species: O                   
Atom  Qatom  Qorb
               2s      2s      2py     2pz     2px     2py     2pz     2px     
               3Pdxy   3Pdyz   3Pdz2   3Pdxz   3Pdx2-y2
   2  3.395   0.871   0.001   0.919   1.028   0.919  -0.094  -0.155  -0.093
              0.000  -0.000   0.000  -0.000   0.000
  11  3.393   0.870   0.001   0.917   1.028   0.917  -0.093  -0.155  -0.093
              0.000  -0.000   0.000  -0.000   0.000
  12  3.393   0.870   0.001   0.917   1.028   0.917  -0.093  -0.155  -0.093
              0.000  -0.000   0.000  -0.000   0.000
  13  3.393   0.870   0.001   0.918   1.028   0.918  -0.093  -0.155  -0.093
              0.000  -0.000   0.000  -0.000   0.000
  14  3.393   0.870   0.001   0.917   1.028   0.917  -0.093  -0.155  -0.093
              0.000  -0.000   0.000  -0.000   0.000
  15  3.393   0.870   0.001   0.917   1.028   0.917  -0.093  -0.155  -0.093
              0.000  -0.000   0.000  -0.000   0.000
  16  3.390   0.869   0.002   0.916   1.028   0.916  -0.092  -0.155  -0.093
              0.000  -0.000   0.000  -0.000   0.000
  17  3.393   0.870   0.001   0.918   1.028   0.918  -0.093  -0.155  -0.093
              0.000  -0.000   0.000  -0.000   0.000
  18  3.393   0.870   0.001   0.917   1.028   0.917  -0.093  -0.155  -0.093
              0.000  -0.000   0.000  -0.000   0.000

mulliken: Qtot =       36.000

mulliken: Spin DOWN 

Species: Mg                  
Atom  Qatom  Qorb
               3s      3s      3Ppy    3Ppz    3Ppx    
   1  0.607   0.106   0.119   0.128   0.127   0.128
   3  0.606   0.106   0.119   0.128   0.127   0.128
   4  0.606   0.105   0.119   0.128   0.127   0.128
   5  0.607   0.106   0.119   0.128   0.127   0.128
   6  0.608   0.106   0.119   0.128   0.127   0.128
   7  0.607   0.106   0.119   0.128   0.127   0.128
   8  0.607   0.106   0.119   0.128   0.127   0.128
   9  0.607   0.106   0.119   0.128   0.127   0.128
  10  0.608   0.106   0.119   0.128   0.127   0.128

Species: O                   
Atom  Qatom  Qorb
               2s      2s      2py     2pz     2px     2py     2pz     2px     
               3Pdxy   3Pdyz   3Pdz2   3Pdxz   3Pdx2-y2
   2  3.395   0.871   0.001   0.919   1.028   0.919  -0.094  -0.155  -0.093
              0.000  -0.000   0.000  -0.000   0.000
  11  3.393   0.870   0.001   0.917   1.028   0.917  -0.093  -0.155  -0.093
              0.000  -0.000   0.000  -0.000   0.000
  12  3.393   0.870   0.001   0.917   1.028   0.917  -0.093  -0.155  -0.093
              0.000  -0.000   0.000  -0.000   0.000
  13  3.393   0.870   0.001   0.918   1.028   0.918  -0.093  -0.155  -0.093
              0.000  -0.000   0.000  -0.000   0.000
  14  3.393   0.870   0.001   0.917   1.028   0.917  -0.093  -0.155  -0.093
              0.000  -0.000   0.000  -0.000   0.000
  15  3.393   0.870   0.001   0.917   1.028   0.917  -0.093  -0.155  -0.093
              0.000  -0.000   0.000  -0.000   0.000
  16  3.390   0.869   0.002   0.916   1.028   0.916  -0.092  -0.155  -0.093
              0.000  -0.000   0.000  -0.000   0.000
  17  3.393   0.870   0.001   0.918   1.028   0.918  -0.093  -0.155  -0.093
              0.000  -0.000   0.000  -0.000   0.000
  18  3.393   0.870   0.001   0.917   1.028   0.917  -0.093  -0.155  -0.093
              0.000  -0.000   0.000  -0.000   0.000

mulliken: Qtot =       36.000

                     ====================================
                        Begin FC step =      3
                         displace atom 1
                         in direction 2 by -0.021167 Ang
                     ====================================

outcoor: Atomic coordinates (fractional):                   
    0.10975783    0.21951566    0.50000000   1       1  Mg
    0.22200000    0.11100000    0.50000000   2       2  O
    0.11100000    0.55533300    0.50000000   1       3  Mg
    0.11100000    0.88866700    0.50000000   1       4  Mg
    0.44433300    0.22200000    0.50000000   1       5  Mg
    0.44433300    0.55533300    0.50000000   1       6  Mg
    0.44433300    0.88866700    0.50000000   1       7  Mg
    0.77766700    0.22200000    0.50000000   1       8  Mg
    0.77766700    0.55533300    0.50000000   1       9  Mg
    0.77766700    0.88866700    0.50000000   1      10  Mg
    0.55533300    0.77766700    0.50000000   2      11  O
    0.22200000    0.44433300    0.50000000   2      12  O
    0.22200000    0.77766700    0.50000000   2      13  O
    0.55533300    0.11100000    0.50000000   2      14  O
    0.55533300    0.44433300    0.50000000   2      15  O
    0.88866700    0.11100000    0.50000000   2      16  O
    0.88866700    0.44433300    0.50000000   2      17  O
    0.88866700    0.77766700    0.50000000   2      18  O

superc: Internal auxiliary supercell:     3 x     3 x     1  =       9
superc: Number of atoms, orbitals, and projectors:    162   1458   2025

outcell: Unit cell vectors (Ang):
        9.838268    0.000000    0.000000
       -4.919134    8.520190    0.000000
        0.000000    0.000000   50.606000

outcell: Cell vector modules (Ang)   :    9.838268    9.838268   50.606000
outcell: Cell angles (23,13,12) (deg):     90.0000     90.0000    120.0000
outcell: Cell volume (Ang**3)        :   4241.9926
<dSpData1D:S at geom step 3
  <sparsity:sparsity for geom step 3
    nrows_g=162 nrows=42 sparsity=.4257 nnzs=11171, refcount: 7>
  <dData1D:(new from dSpData1D) n=11171, refcount: 1>
refcount: 1>
new_DM -- step:     4
Initializing Density Matrix...

Attempting to read DM from file... Succeeded...
DM from file:
<dSpData2D:IO-DM: MgO-3x3x1-2V.DM
  <sparsity:IO-DM: MgO-3x3x1-2V.DM
    nrows_g=162 nrows=42 sparsity=.4257 nnzs=11171, refcount: 1>
  <dData2D:(new from dSpData2D) n=11171 m=2, refcount: 1>
refcount: 1>
DM to be used:
<dSpData2D:Re-structured SpM
  <sparsity:sparsity for geom step 3
    nrows_g=162 nrows=42 sparsity=.4257 nnzs=11171, refcount: 9>
  <dData2D:(new in restruct) n=11171 m=2, refcount: 1>
refcount: 1>
     spin moment: S , {S} =   -0.00000       0.0       0.0  -0.00000
No. of atoms with KB's overlaping orbs in proc 0. Max # of overlaps:      42      98
New grid distribution:   1
           1       1:   45    1:   23    1:   90
           2       1:   45    1:   23   91:  180
           3       1:   45    1:   23  181:  270
           4       1:   45   24:   45    1:   90
           5       1:   45   24:   45   91:  180
           6       1:   45   24:   45  181:  270

InitMesh: MESH =    90 x    90 x   540 =     4374000
InitMesh: (bp) =    45 x    45 x   270 =      546750
InitMesh: Mesh cutoff (required, used) =   300.000   308.381 Ry
ExtMesh (bp) on 0 =   121 x    99 x   166 =     1988514
New grid distribution:   2
           1       1:   45    1:   45  130:  132
           2       1:   45    1:   45  136:  138
           3       1:   45    1:   45  142:  270
           4       1:   45    1:   45  133:  135
           5       1:   45    1:   45    1:  129
           6       1:   45    1:   45  139:  141
New grid distribution:   3
           1       1:   45    1:   45  124:  129
           2       1:   45    1:   45  136:  141
           3       1:   45    1:   45  148:  270
           4       1:   45    1:   45  130:  135
           5       1:   45    1:   45    1:  123
           6       1:   45    1:   45  142:  147
Setting up quadratic distribution...
ExtMesh (bp) on 0 =   121 x   121 x    79 =     1156639
PhiOnMesh: Number of (b)points on node 0 =                 6075
PhiOnMesh: nlist on node 0 =               199521

        iscf     Eharris(eV)        E_KS(eV)     FreeEng(eV)     dDmax    Ef(eV) dHmax(eV)
   scf:    1    -4260.495217    -4260.495615    -4260.495615  0.005060 -0.949622  0.033317
     spin moment: S , {S} =   -0.00000       0.0       0.0  -0.00000
   scf:    2    -4260.494624    -4260.495355    -4260.495355  0.001236 -0.947688  0.089017
     spin moment: S , {S} =   -0.00000       0.0       0.0  -0.00000
   scf:    3    -4260.495766    -4260.495684    -4260.495684  0.000843 -0.949052  0.006168
     spin moment: S , {S} =   -0.00000       0.0       0.0  -0.00000
   scf:    4    -4260.495692    -4260.495689    -4260.495689  0.000314 -0.949125  0.001730
     spin moment: S , {S} =   -0.00000       0.0       0.0  -0.00000
   scf:    5    -4260.495689    -4260.495689    -4260.495689  0.000094 -0.949175  0.000728
     spin moment: S , {S} =   -0.00000       0.0       0.0  -0.00000

SCF Convergence by DM+H criterion
max |DM_out - DM_in|         :     0.0000942581
max |H_out - H_in|      (eV) :     0.0007277653
SCF cycle converged after 5 iterations

Using DM_out to compute the final energy and forces
No. of atoms with KB's overlaping orbs in proc 0. Max # of overlaps:      42      98

siesta: E_KS(eV) =            -4260.4957
     spin moment: S , {S} =   -0.00000       0.0       0.0  -0.00000

siesta: Atomic forces (eV/Ang):
     1   -0.032764    0.507518    0.000000
     2    0.127806   -0.107053   -0.000000
     3   -0.003562   -0.000048    0.000000
     4   -0.009337   -0.000542    0.000000
     5   -0.027228    0.040624    0.000000
     6   -0.057049   -0.000062    0.000000
     7   -0.030302    0.017965    0.000000
     8   -0.033428    0.040562    0.000000
     9   -0.030411    0.017750    0.000000
    10   -0.051395   -0.000619    0.000000
    11    0.035829   -0.006299   -0.000000
    12    0.028220   -0.253449   -0.000000
    13    0.020412   -0.006357   -0.000000
    14    0.028172   -0.019154   -0.000000
    15    0.038862   -0.020932   -0.000000
    16   -0.069442   -0.106005   -0.000000
    17    0.017381   -0.020985   -0.000000
    18    0.028055   -0.003018   -0.000000
----------------------------------------
   Tot   -0.020181    0.079897    0.000000
----------------------------------------
   Max    0.507518
   Res    0.084721    sqrt( Sum f_i^2 / 3N )
----------------------------------------
   Max    0.507518    constrained

Stress-tensor-Voigt (kbar):       -1.36       -1.12        0.01        0.08       -0.00        0.00
(Free)E + p*V (eV/cell)    -4258.3101
Target enthalpy (eV/cell)    -4260.4957

mulliken: Atomic and Orbital Populations:

mulliken: Spin UP 

Species: Mg                  
Atom  Qatom  Qorb
               3s      3s      3Ppy    3Ppz    3Ppx    
   1  0.607   0.106   0.119   0.128   0.127   0.127
   3  0.608   0.106   0.119   0.128   0.127   0.128
   4  0.607   0.106   0.119   0.128   0.127   0.128
   5  0.606   0.106   0.119   0.128   0.127   0.127
   6  0.608   0.106   0.119   0.128   0.127   0.128
   7  0.607   0.106   0.119   0.128   0.127   0.128
   8  0.606   0.106   0.119   0.128   0.127   0.127
   9  0.607   0.106   0.119   0.128   0.127   0.128
  10  0.607   0.106   0.119   0.128   0.127   0.128

Species: O                   
Atom  Qatom  Qorb
               2s      2s      2py     2pz     2px     2py     2pz     2px     
               3Pdxy   3Pdyz   3Pdz2   3Pdxz   3Pdx2-y2
   2  3.394   0.870   0.001   0.918   1.028   0.919  -0.094  -0.155  -0.094
              0.000  -0.000   0.000  -0.000   0.000
  11  3.393   0.870   0.001   0.917   1.028   0.917  -0.093  -0.155  -0.093
              0.000  -0.000   0.000  -0.000   0.000
  12  3.390   0.869   0.002   0.915   1.028   0.916  -0.093  -0.155  -0.092
              0.000  -0.000   0.000  -0.000   0.000
  13  3.393   0.870   0.001   0.917   1.028   0.917  -0.093  -0.155  -0.093
              0.000  -0.000   0.000  -0.000   0.000
  14  3.393   0.870   0.001   0.918   1.028   0.918  -0.093  -0.155  -0.093
              0.000  -0.000   0.000  -0.000   0.000
  15  3.393   0.870   0.001   0.917   1.028   0.918  -0.093  -0.155  -0.093
              0.000  -0.000   0.000  -0.000   0.000
  16  3.394   0.870   0.001   0.918   1.028   0.919  -0.094  -0.155  -0.094
              0.000  -0.000   0.000  -0.000   0.000
  17  3.393   0.870   0.001   0.917   1.028   0.918  -0.093  -0.155  -0.093
              0.000  -0.000   0.000  -0.000   0.000
  18  3.393   0.870   0.001   0.917   1.028   0.918  -0.093  -0.155  -0.093
              0.000  -0.000   0.000  -0.000   0.000

mulliken: Qtot =       36.000

mulliken: Spin DOWN 

Species: Mg                  
Atom  Qatom  Qorb
               3s      3s      3Ppy    3Ppz    3Ppx    
   1  0.607   0.106   0.119   0.128   0.127   0.127
   3  0.608   0.106   0.119   0.128   0.127   0.128
   4  0.607   0.106   0.119   0.128   0.127   0.128
   5  0.606   0.106   0.119   0.128   0.127   0.127
   6  0.608   0.106   0.119   0.128   0.127   0.128
   7  0.607   0.106   0.119   0.128   0.127   0.128
   8  0.606   0.106   0.119   0.128   0.127   0.127
   9  0.607   0.106   0.119   0.128   0.127   0.128
  10  0.607   0.106   0.119   0.128   0.127   0.128

Species: O                   
Atom  Qatom  Qorb
               2s      2s      2py     2pz     2px     2py     2pz     2px     
               3Pdxy   3Pdyz   3Pdz2   3Pdxz   3Pdx2-y2
   2  3.394   0.870   0.001   0.918   1.028   0.919  -0.094  -0.155  -0.094
              0.000  -0.000   0.000  -0.000   0.000
  11  3.393   0.870   0.001   0.918   1.028   0.917  -0.093  -0.155  -0.093
              0.000  -0.000   0.000  -0.000   0.000
  12  3.390   0.869   0.002   0.915   1.028   0.916  -0.093  -0.155  -0.092
              0.000  -0.000   0.000  -0.000   0.000
  13  3.393   0.870   0.001   0.918   1.028   0.917  -0.093  -0.155  -0.093
              0.000  -0.000   0.000  -0.000   0.000
  14  3.393   0.870   0.001   0.918   1.028   0.918  -0.093  -0.155  -0.093
              0.000  -0.000   0.000  -0.000   0.000
  15  3.393   0.870   0.001   0.917   1.028   0.918  -0.093  -0.155  -0.093
              0.000  -0.000   0.000  -0.000   0.000
  16  3.394   0.870   0.001   0.918   1.028   0.919  -0.094  -0.155  -0.094
              0.000  -0.000   0.000  -0.000   0.000
  17  3.393   0.870   0.001   0.917   1.028   0.918  -0.093  -0.155  -0.093
              0.000  -0.000   0.000  -0.000   0.000
  18  3.393   0.870   0.001   0.917   1.028   0.918  -0.093  -0.155  -0.093
              0.000  -0.000   0.000  -0.000   0.000

mulliken: Qtot =       36.000

                     ====================================
                        Begin FC step =      4
                         displace atom 1
                         in direction 2 by  0.021167 Ang
                     ====================================

outcoor: Atomic coordinates (fractional):                   
    0.11224217    0.22448434    0.50000000   1       1  Mg
    0.22200000    0.11100000    0.50000000   2       2  O
    0.11100000    0.55533300    0.50000000   1       3  Mg
    0.11100000    0.88866700    0.50000000   1       4  Mg
    0.44433300    0.22200000    0.50000000   1       5  Mg
    0.44433300    0.55533300    0.50000000   1       6  Mg
    0.44433300    0.88866700    0.50000000   1       7  Mg
    0.77766700    0.22200000    0.50000000   1       8  Mg
    0.77766700    0.55533300    0.50000000   1       9  Mg
    0.77766700    0.88866700    0.50000000   1      10  Mg
    0.55533300    0.77766700    0.50000000   2      11  O
    0.22200000    0.44433300    0.50000000   2      12  O
    0.22200000    0.77766700    0.50000000   2      13  O
    0.55533300    0.11100000    0.50000000   2      14  O
    0.55533300    0.44433300    0.50000000   2      15  O
    0.88866700    0.11100000    0.50000000   2      16  O
    0.88866700    0.44433300    0.50000000   2      17  O
    0.88866700    0.77766700    0.50000000   2      18  O

superc: Internal auxiliary supercell:     3 x     3 x     1  =       9
superc: Number of atoms, orbitals, and projectors:    162   1458   2025

outcell: Unit cell vectors (Ang):
        9.838268    0.000000    0.000000
       -4.919134    8.520190    0.000000
        0.000000    0.000000   50.606000

outcell: Cell vector modules (Ang)   :    9.838268    9.838268   50.606000
outcell: Cell angles (23,13,12) (deg):     90.0000     90.0000    120.0000
outcell: Cell volume (Ang**3)        :   4241.9926
<dSpData1D:S at geom step 4
  <sparsity:sparsity for geom step 4
    nrows_g=162 nrows=42 sparsity=.4241 nnzs=11131, refcount: 7>
  <dData1D:(new from dSpData1D) n=11131, refcount: 1>
refcount: 1>
new_DM -- step:     5
Initializing Density Matrix...

Attempting to read DM from file... Succeeded...
DM from file:
<dSpData2D:IO-DM: MgO-3x3x1-2V.DM
  <sparsity:IO-DM: MgO-3x3x1-2V.DM
    nrows_g=162 nrows=42 sparsity=.4257 nnzs=11171, refcount: 1>
  <dData2D:(new from dSpData2D) n=11171 m=2, refcount: 1>
refcount: 1>
DM to be used:
<dSpData2D:Re-structured SpM
  <sparsity:sparsity for geom step 4
    nrows_g=162 nrows=42 sparsity=.4241 nnzs=11131, refcount: 9>
  <dData2D:(new in restruct) n=11131 m=2, refcount: 1>
refcount: 1>
     spin moment: S , {S} =   -0.00000       0.0       0.0  -0.00000
No. of atoms with KB's overlaping orbs in proc 0. Max # of overlaps:      41      98
New grid distribution:   1
           1       1:   45    1:   23    1:   90
           2       1:   45    1:   23   91:  180
           3       1:   45    1:   23  181:  270
           4       1:   45   24:   45    1:   90
           5       1:   45   24:   45   91:  180
           6       1:   45   24:   45  181:  270

InitMesh: MESH =    90 x    90 x   540 =     4374000
InitMesh: (bp) =    45 x    45 x   270 =      546750
InitMesh: Mesh cutoff (required, used) =   300.000   308.381 Ry
ExtMesh (bp) on 0 =   121 x    99 x   166 =     1988514
New grid distribution:   2
           1       1:   45    1:   45  130:  132
           2       1:   45    1:   45  136:  138
           3       1:   45    1:   45  142:  270
           4       1:   45    1:   45  133:  135
           5       1:   45    1:   45    1:  129
           6       1:   45    1:   45  139:  141
New grid distribution:   3
           1       1:   45    1:   45  124:  129
           2       1:   45    1:   45  136:  141
           3       1:   45    1:   45  148:  270
           4       1:   45    1:   45  130:  135
           5       1:   45    1:   45    1:  123
           6       1:   45    1:   45  142:  147
Setting up quadratic distribution...
ExtMesh (bp) on 0 =   121 x   121 x    79 =     1156639
PhiOnMesh: Number of (b)points on node 0 =                 6075
PhiOnMesh: nlist on node 0 =               199563

        iscf     Eharris(eV)        E_KS(eV)     FreeEng(eV)     dDmax    Ef(eV) dHmax(eV)
   scf:    1    -4260.496039    -4260.496413    -4260.496413  0.005475 -0.951972  0.047720
     spin moment: S , {S} =   -0.00000       0.0       0.0  -0.00000
   scf:    2    -4260.495141    -4260.496074    -4260.496074  0.001608 -0.949735  0.125962
     spin moment: S , {S} =   -0.00000       0.0       0.0  -0.00000
   scf:    3    -4260.496598    -4260.496493    -4260.496493  0.001115 -0.951306  0.006157
     spin moment: S , {S} =   -0.00000       0.0       0.0  -0.00000
   scf:    4    -4260.496501    -4260.496498    -4260.496498  0.000320 -0.951410  0.001926
     spin moment: S , {S} =   -0.00000       0.0       0.0  -0.00000
   scf:    5    -4260.496498    -4260.496498    -4260.496498  0.000088 -0.951464  0.000752
     spin moment: S , {S} =   -0.00000       0.0       0.0  -0.00000

SCF Convergence by DM+H criterion
max |DM_out - DM_in|         :     0.0000880905
max |H_out - H_in|      (eV) :     0.0007520508
SCF cycle converged after 5 iterations

Using DM_out to compute the final energy and forces
No. of atoms with KB's overlaping orbs in proc 0. Max # of overlaps:      41      98

siesta: E_KS(eV) =            -4260.4965
     spin moment: S , {S} =   -0.00000       0.0       0.0  -0.00000

siesta: Atomic forces (eV/Ang):
     1   -0.027972   -0.486754    0.000000
     2   -0.065486    0.068297   -0.000000
     3   -0.057175    0.052154    0.000000
     4   -0.050622    0.051691    0.000000
     5   -0.033420    0.010701    0.000000
     6   -0.003418    0.052174    0.000000
     7   -0.030297    0.033554    0.000000
     8   -0.027335    0.010638    0.000000
     9   -0.030406    0.033574    0.000000
    10   -0.010069    0.051647    0.000000
    11    0.020716   -0.031505   -0.000000
    12    0.027856    0.248773   -0.000000
    13    0.035552   -0.031562   -0.000000
    14    0.028183   -0.018268   -0.000000
    15    0.017485   -0.016365   -0.000000
    16    0.119447    0.067259   -0.000000
    17    0.038692   -0.016426   -0.000000
    18    0.028054   -0.034952   -0.000000
----------------------------------------
   Tot   -0.020216    0.044630    0.000000
----------------------------------------
   Max    0.486754
   Res    0.081672    sqrt( Sum f_i^2 / 3N )
----------------------------------------
   Max    0.486754    constrained

Stress-tensor-Voigt (kbar):       -1.14       -1.36        0.01        0.08        0.00        0.00
(Free)E + p*V (eV/cell)    -4258.3044
Target enthalpy (eV/cell)    -4260.4965

mulliken: Atomic and Orbital Populations:

mulliken: Spin UP 

Species: Mg                  
Atom  Qatom  Qorb
               3s      3s      3Ppy    3Ppz    3Ppx    
   1  0.607   0.106   0.119   0.127   0.127   0.128
   3  0.606   0.106   0.119   0.128   0.127   0.128
   4  0.607   0.106   0.119   0.128   0.127   0.128
   5  0.608   0.106   0.119   0.128   0.127   0.128
   6  0.606   0.106   0.119   0.128   0.127   0.128
   7  0.607   0.106   0.119   0.128   0.127   0.128
   8  0.608   0.106   0.119   0.128   0.127   0.128
   9  0.607   0.106   0.119   0.128   0.127   0.128
  10  0.607   0.106   0.119   0.128   0.127   0.128

Species: O                   
Atom  Qatom  Qorb
               2s      2s      2py     2pz     2px     2py     2pz     2px     
               3Pdxy   3Pdyz   3Pdz2   3Pdxz   3Pdx2-y2
   2  3.391   0.869   0.002   0.916   1.028   0.916  -0.093  -0.155  -0.093
              0.000  -0.000   0.000  -0.000   0.000
  11  3.393   0.870   0.001   0.917   1.028   0.918  -0.093  -0.155  -0.093
              0.000  -0.000   0.000  -0.000   0.000
  12  3.396   0.871   0.001   0.920   1.028   0.919  -0.093  -0.155  -0.095
              0.000  -0.000   0.000  -0.000   0.000
  13  3.393   0.870   0.001   0.917   1.028   0.918  -0.093  -0.155  -0.093
              0.000  -0.000   0.000  -0.000   0.000
  14  3.393   0.870   0.001   0.917   1.028   0.917  -0.093  -0.155  -0.093
              0.000  -0.000   0.000  -0.000   0.000
  15  3.393   0.870   0.001   0.918   1.028   0.917  -0.093  -0.155  -0.093
              0.000  -0.000   0.000  -0.000   0.000
[...]
         52.06  52.93
  50  1 -20.10 -20.06 -19.96 -19.88 -19.78 -19.76 -19.75 -19.74 -19.74  -7.24
         -7.08  -7.04  -6.93  -6.93  -6.61  -6.33  -5.87  -5.86  -5.80  -5.71
         -5.65  -5.65  -5.56  -5.49  -5.45  -5.42  -5.33  -5.17  -5.17  -5.14
         -4.92  -4.57  -4.50  -4.48  -4.45  -4.43   0.35   0.66   1.48   2.19
          2.90   2.92   3.04   3.19   3.39   3.50   3.52   3.57   3.61   3.68
          3.75   3.86   4.16   4.18   4.82   5.32   5.45   5.84   6.01   7.14
          7.99   9.30   9.99  10.49  10.75  11.05  11.40  11.75  12.24  12.50
         12.61  13.22  13.50  13.58  14.29  15.32  16.40  17.30  17.62  18.05
         18.31  25.02  25.04  25.19  25.30  25.60  26.91  27.01  27.15  27.24
         27.53  27.69  27.91  28.08  28.70  28.92  29.16  29.17  29.55  29.63
         30.19  30.82  31.53  33.96  34.14  34.34  34.62  34.78  34.98  35.39
         35.60  35.66  35.82  35.84  35.93  35.97  36.16  36.17  36.32  36.33
         36.42  36.50  36.54  37.39  37.66  38.14  38.20  38.39  38.94  40.19
         40.27  40.33  41.03  41.48  41.75  42.03  42.24  42.27  42.30  42.39
         43.15  43.29  43.31  43.39  43.80  43.90  43.90  43.91  43.96  45.61
         46.41  46.75  46.84  47.12  47.29  47.66  47.67  48.75  50.55  51.11
         51.72  52.67
  50  2 -20.10 -20.06 -19.96 -19.88 -19.78 -19.76 -19.75 -19.74 -19.74  -7.24
         -7.08  -7.04  -6.93  -6.93  -6.61  -6.33  -5.87  -5.86  -5.80  -5.71
         -5.65  -5.65  -5.56  -5.49  -5.45  -5.42  -5.33  -5.17  -5.17  -5.14
         -4.92  -4.57  -4.50  -4.48  -4.45  -4.43   0.35   0.66   1.48   2.20
          2.90   2.92   3.04   3.19   3.39   3.50   3.52   3.57   3.61   3.68
          3.75   3.86   4.16   4.18   4.82   5.32   5.45   5.84   6.01   7.14
          7.99   9.30   9.99  10.49  10.75  11.05  11.40  11.75  12.24  12.50
         12.61  13.22  13.50  13.58  14.29  15.32  16.40  17.30  17.62  18.05
         18.31  25.02  25.04  25.19  25.30  25.60  26.91  27.01  27.15  27.24
         27.53  27.69  27.91  28.08  28.70  28.92  29.16  29.17  29.55  29.63
         30.19  30.82  31.53  33.96  34.14  34.34  34.62  34.78  34.98  35.39
         35.60  35.66  35.82  35.84  35.93  35.97  36.16  36.17  36.32  36.33
         36.42  36.50  36.54  37.39  37.66  38.14  38.20  38.39  38.94  40.19
         40.27  40.33  41.03  41.48  41.75  42.03  42.24  42.27  42.30  42.39
         43.15  43.29  43.31  43.39  43.80  43.90  43.90  43.91  43.96  45.61
         46.41  46.75  46.84  47.12  47.29  47.66  47.67  48.75  50.55  51.11
         51.72  52.67
  51  1 -20.09 -20.09 -19.92 -19.92 -19.75 -19.75 -19.75 -19.75 -19.74  -7.25
         -7.00  -7.00  -7.00  -7.00  -6.48  -6.48  -5.76  -5.76  -5.76  -5.76
         -5.75  -5.75  -5.52  -5.52  -5.41  -5.41  -5.40  -5.15  -5.15  -5.05
         -5.05  -4.49  -4.49  -4.49  -4.49  -4.45   0.48   0.48   1.83   1.83
          2.91   2.91   3.10   3.10   3.52   3.60   3.60   3.60   3.60   3.79
          3.79   3.79   3.79   4.22   4.74   5.66   5.66   5.66   5.66   7.55
          7.55   9.68   9.68  10.87  10.87  10.87  10.87  12.00  12.00  12.58
         12.58  13.46  13.52  13.52  14.75  14.75  16.21  17.88  17.88  17.88
         17.88  25.03  25.25  25.25  25.26  25.26  27.03  27.03  27.39  27.39
         27.55  27.55  27.70  27.70  28.96  28.96  28.97  28.97  29.92  29.92
         30.55  30.55  31.16  34.27  34.27  34.28  34.29  34.51  35.43  35.64
         35.64  35.65  35.65  35.88  35.88  35.88  35.89  36.18  36.25  36.25
         36.52  36.53  36.89  36.90  37.46  38.19  38.19  38.62  38.62  40.62
         40.62  41.04  41.04  41.05  41.05  42.24  42.24  42.25  42.25  42.30
         43.32  43.49  43.49  43.50  43.50  43.73  43.73  43.84  43.84  46.32
         46.32  46.78  46.78  46.78  46.78  47.71  48.17  48.17  51.18  51.18
         52.07  52.07
  51  2 -20.09 -20.09 -19.92 -19.92 -19.75 -19.75 -19.75 -19.75 -19.74  -7.25
         -7.00  -7.00  -7.00  -7.00  -6.48  -6.48  -5.76  -5.76  -5.76  -5.76
         -5.75  -5.75  -5.52  -5.52  -5.41  -5.41  -5.40  -5.15  -5.15  -5.05
         -5.05  -4.49  -4.49  -4.49  -4.49  -4.45   0.48   0.48   1.83   1.83
          2.91   2.91   3.10   3.10   3.52   3.60   3.60   3.60   3.60   3.79
          3.79   3.79   3.79   4.22   4.74   5.66   5.66   5.66   5.66   7.55
          7.55   9.68   9.68  10.87  10.87  10.87  10.87  12.00  12.00  12.58
         12.58  13.46  13.52  13.52  14.75  14.75  16.21  17.88  17.88  17.88
         17.88  25.03  25.25  25.25  25.26  25.26  27.03  27.03  27.39  27.39
         27.55  27.55  27.70  27.70  28.96  28.96  28.97  28.97  29.92  29.92
         30.55  30.55  31.16  34.27  34.27  34.28  34.29  34.51  35.43  35.64
         35.64  35.65  35.65  35.88  35.88  35.88  35.89  36.18  36.25  36.25
         36.52  36.53  36.89  36.90  37.46  38.19  38.19  38.62  38.62  40.62
         40.62  41.04  41.04  41.05  41.05  42.24  42.24  42.25  42.25  42.30
         43.32  43.49  43.49  43.50  43.50  43.73  43.73  43.84  43.84  46.32
         46.32  46.78  46.78  46.78  46.78  47.71  48.17  48.17  51.18  51.18
         52.07  52.07
  52  1 -20.10 -20.06 -19.96 -19.88 -19.78 -19.76 -19.75 -19.74 -19.74  -7.24
         -7.08  -7.04  -6.93  -6.93  -6.61  -6.33  -5.87  -5.86  -5.80  -5.71
         -5.65  -5.65  -5.56  -5.49  -5.45  -5.42  -5.33  -5.17  -5.17  -5.14
         -4.92  -4.57  -4.50  -4.48  -4.45  -4.43   0.35   0.66   1.48   2.19
          2.90   2.92   3.04   3.19   3.39   3.50   3.52   3.57   3.61   3.68
          3.75   3.86   4.16   4.18   4.82   5.32   5.45   5.84   6.01   7.14
          7.99   9.30   9.99  10.49  10.75  11.05  11.40  11.75  12.24  12.50
         12.61  13.22  13.50  13.58  14.29  15.32  16.40  17.30  17.62  18.05
         18.31  25.02  25.04  25.19  25.30  25.60  26.91  27.01  27.15  27.24
         27.53  27.69  27.91  28.08  28.70  28.92  29.16  29.17  29.55  29.63
         30.19  30.82  31.53  33.96  34.14  34.34  34.62  34.78  34.98  35.39
         35.60  35.66  35.82  35.84  35.93  35.97  36.16  36.17  36.32  36.33
         36.42  36.50  36.54  37.39  37.66  38.14  38.20  38.39  38.94  40.19
         40.27  40.33  41.03  41.48  41.75  42.03  42.24  42.27  42.30  42.39
         43.15  43.29  43.31  43.39  43.80  43.90  43.90  43.91  43.96  45.61
         46.41  46.75  46.84  47.12  47.29  47.66  47.67  48.75  50.55  51.11
         51.72  52.67
  52  2 -20.10 -20.06 -19.96 -19.88 -19.78 -19.76 -19.75 -19.74 -19.74  -7.24
         -7.08  -7.04  -6.93  -6.93  -6.61  -6.33  -5.87  -5.86  -5.80  -5.71
         -5.65  -5.65  -5.56  -5.49  -5.45  -5.42  -5.33  -5.17  -5.17  -5.14
         -4.92  -4.57  -4.50  -4.48  -4.45  -4.43   0.35   0.66   1.48   2.20
          2.90   2.92   3.04   3.19   3.39   3.50   3.52   3.57   3.61   3.68
          3.75   3.86   4.16   4.18   4.82   5.32   5.45   5.84   6.01   7.14
          7.99   9.30   9.99  10.49  10.75  11.05  11.40  11.75  12.24  12.50
         12.61  13.22  13.50  13.58  14.29  15.32  16.40  17.30  17.62  18.05
         18.31  25.02  25.04  25.19  25.30  25.60  26.91  27.01  27.15  27.24
         27.53  27.69  27.91  28.08  28.70  28.92  29.16  29.17  29.55  29.63
         30.19  30.82  31.53  33.96  34.14  34.34  34.62  34.78  34.98  35.39
         35.60  35.66  35.82  35.84  35.93  35.97  36.16  36.17  36.32  36.33
         36.42  36.50  36.54  37.39  37.66  38.14  38.20  38.39  38.94  40.19
         40.27  40.33  41.03  41.48  41.75  42.03  42.24  42.27  42.30  42.39
         43.15  43.29  43.31  43.39  43.80  43.90  43.90  43.91  43.96  45.61
         46.41  46.75  46.84  47.12  47.29  47.66  47.67  48.75  50.55  51.11
         51.72  52.67
  53  1 -20.11 -20.03 -20.00 -19.84 -19.81 -19.76 -19.74 -19.74 -19.73  -7.20
         -7.15  -7.06  -6.88  -6.84  -6.74  -6.17  -6.02  -5.91  -5.82  -5.65
         -5.60  -5.58  -5.57  -5.55  -5.47  -5.37  -5.28  -5.27  -5.21  -5.13
         -4.80  -4.68  -4.50  -4.47  -4.46  -4.40   0.29   0.90   1.17   2.58
          2.89   2.95   2.98   2.99   3.28   3.39   3.54   3.55   3.62   3.72
          3.73   3.95   4.05   4.53   4.99   5.00   5.22   5.94   6.37   6.74
          8.44   8.88  10.16  10.28  10.69  11.26  11.50  12.02  12.43  12.43
         12.56  12.67  13.50  13.71  13.94  15.97  16.64  16.81  17.26  18.13
         18.54  24.89  25.08  25.13  25.33  26.03  26.50  26.85  27.18  27.27
         27.39  28.15  28.17  28.41  28.61  28.83  28.92  29.10  29.27  29.56
         30.15  30.33  32.56  33.57  33.77  34.09  34.93  35.09  35.21  35.37
         35.51  35.66  35.73  35.78  35.82  36.00  36.05  36.08  36.11  36.40
         36.45  36.55  36.94  37.76  38.01  38.19  38.27  38.30  39.26  39.33
         39.75  39.81  41.41  41.63  41.74  42.23  42.29  42.29  42.38  42.47
         42.92  42.98  43.25  43.27  43.77  43.95  43.96  44.28  44.49  45.05
         46.10  46.75  46.99  47.25  47.38  47.56  48.49  49.36  49.73  50.06
         52.06  52.93
  53  2 -20.11 -20.03 -20.00 -19.84 -19.81 -19.76 -19.74 -19.74 -19.73  -7.20
         -7.15  -7.06  -6.88  -6.84  -6.74  -6.17  -6.02  -5.91  -5.82  -5.65
         -5.60  -5.58  -5.57  -5.55  -5.47  -5.37  -5.28  -5.27  -5.21  -5.13
         -4.80  -4.68  -4.50  -4.47  -4.46  -4.40   0.29   0.90   1.17   2.58
          2.89   2.95   2.98   2.99   3.28   3.39   3.54   3.55   3.62   3.72
          3.73   3.95   4.05   4.53   4.99   5.00   5.22   5.94   6.37   6.74
          8.44   8.88  10.16  10.28  10.69  11.26  11.50  12.02  12.43  12.43
         12.56  12.67  13.50  13.71  13.94  15.97  16.64  16.81  17.26  18.13
         18.54  24.89  25.08  25.12  25.33  26.03  26.50  26.85  27.18  27.27
         27.39  28.15  28.17  28.41  28.61  28.83  28.92  29.10  29.27  29.56
         30.15  30.33  32.56  33.57  33.77  34.09  34.93  35.09  35.21  35.37
         35.51  35.66  35.73  35.78  35.82  36.00  36.05  36.08  36.11  36.40
         36.45  36.55  36.94  37.76  38.01  38.19  38.27  38.30  39.26  39.33
         39.75  39.81  41.41  41.63  41.74  42.23  42.28  42.29  42.38  42.47
         42.92  42.98  43.25  43.27  43.77  43.95  43.96  44.28  44.49  45.05
         46.10  46.75  46.99  47.25  47.38  47.56  48.49  49.36  49.73  50.06
         52.06  52.93
  54  1 -20.11 -20.03 -20.00 -19.84 -19.81 -19.76 -19.74 -19.74 -19.73  -7.20
         -7.15  -7.06  -6.88  -6.84  -6.74  -6.17  -6.02  -5.91  -5.82  -5.65
         -5.60  -5.58  -5.57  -5.55  -5.47  -5.37  -5.28  -5.27  -5.21  -5.13
         -4.80  -4.68  -4.50  -4.47  -4.46  -4.40   0.29   0.89   1.17   2.58
          2.89   2.95   2.98   2.99   3.29   3.39   3.53   3.56   3.62   3.72
          3.73   3.95   4.05   4.53   4.99   5.00   5.22   5.94   6.37   6.74
          8.43   8.88  10.16  10.28  10.69  11.26  11.50  12.02  12.43  12.43
         12.56  12.67  13.50  13.71  13.94  15.96  16.64  16.83  17.25  18.13
         18.54  24.89  25.07  25.13  25.33  26.02  26.50  26.85  27.18  27.27
         27.39  28.14  28.17  28.42  28.61  28.83  28.92  29.10  29.27  29.56
         30.16  30.33  32.57  33.56  33.78  34.09  34.94  35.09  35.20  35.36
         35.51  35.66  35.74  35.78  35.82  36.01  36.04  36.08  36.12  36.39
         36.46  36.55  36.94  37.77  38.00  38.19  38.26  38.29  39.27  39.33
         39.75  39.81  41.41  41.63  41.75  42.23  42.28  42.30  42.37  42.47
         42.94  42.98  43.24  43.28  43.77  43.94  43.98  44.28  44.51  45.03
         46.09  46.75  46.98  47.26  47.37  47.57  48.48  49.36  49.73  50.06
         52.05  52.93
  54  2 -20.11 -20.03 -20.00 -19.84 -19.81 -19.76 -19.74 -19.74 -19.73  -7.20
         -7.15  -7.06  -6.88  -6.84  -6.74  -6.17  -6.02  -5.91  -5.82  -5.65
         -5.60  -5.58  -5.57  -5.55  -5.47  -5.37  -5.28  -5.27  -5.21  -5.13
         -4.80  -4.68  -4.50  -4.47  -4.46  -4.40   0.29   0.89   1.17   2.58
          2.89   2.95   2.98   2.99   3.29   3.39   3.53   3.56   3.62   3.72
          3.73   3.95   4.05   4.53   4.99   5.00   5.22   5.94   6.37   6.74
          8.43   8.89  10.16  10.28  10.69  11.26  11.50  12.02  12.43  12.44
         12.56  12.67  13.50  13.71  13.94  15.96  16.64  16.83  17.25  18.13
         18.54  24.89  25.07  25.13  25.33  26.02  26.50  26.85  27.18  27.27
         27.39  28.14  28.17  28.42  28.61  28.83  28.92  29.10  29.27  29.56
         30.16  30.33  32.57  33.56  33.78  34.09  34.94  35.09  35.20  35.36
         35.51  35.66  35.74  35.78  35.82  36.01  36.04  36.08  36.12  36.39
         36.46  36.55  36.94  37.77  38.00  38.19  38.26  38.29  39.27  39.33
         39.75  39.81  41.41  41.63  41.75  42.23  42.28  42.30  42.37  42.47
         42.94  42.98  43.24  43.28  43.77  43.94  43.98  44.28  44.51  45.03
         46.09  46.75  46.98  47.26  47.37  47.57  48.48  49.36  49.73  50.06
         52.05  52.93
  55  1 -20.10 -20.06 -19.96 -19.88 -19.78 -19.76 -19.75 -19.74 -19.74  -7.24
         -7.08  -7.04  -6.93  -6.93  -6.61  -6.33  -5.88  -5.86  -5.80  -5.71
         -5.66  -5.65  -5.56  -5.49  -5.45  -5.41  -5.34  -5.17  -5.17  -5.13
         -4.92  -4.57  -4.50  -4.48  -4.45  -4.43   0.35   0.66   1.48   2.20
          2.90   2.92   3.04   3.19   3.39   3.50   3.52   3.58   3.62   3.68
          3.75   3.86   4.16   4.18   4.82   5.32   5.45   5.84   6.01   7.13
          7.99   9.31   9.99  10.49  10.75  11.05  11.40  11.75  12.24  12.49
         12.60  13.22  13.51  13.59  14.28  15.32  16.42  17.30  17.61  18.05
         18.31  25.01  25.03  25.20  25.31  25.60  26.91  27.02  27.15  27.24
         27.53  27.68  27.90  28.09  28.70  28.91  29.16  29.17  29.54  29.64
         30.19  30.82  31.54  33.97  34.14  34.33  34.63  34.79  34.97  35.37
         35.60  35.65  35.82  35.84  35.94  35.96  36.16  36.17  36.32  36.33
         36.41  36.50  36.55  37.40  37.65  38.13  38.19  38.39  38.94  40.19
         40.27  40.34  41.03  41.48  41.75  42.03  42.24  42.26  42.31  42.40
         43.16  43.29  43.32  43.41  43.80  43.89  43.90  43.93  43.97  45.59
         46.40  46.75  46.84  47.11  47.27  47.66  47.68  48.75  50.54  51.13
         51.70  52.69
  55  2 -20.10 -20.06 -19.96 -19.88 -19.78 -19.76 -19.75 -19.74 -19.74  -7.24
         -7.08  -7.04  -6.93  -6.93  -6.61  -6.33  -5.88  -5.86  -5.80  -5.71
         -5.66  -5.65  -5.56  -5.49  -5.45  -5.41  -5.34  -5.17  -5.17  -5.13
         -4.92  -4.57  -4.50  -4.48  -4.45  -4.43   0.35   0.66   1.48   2.20
          2.90   2.92   3.04   3.19   3.39   3.50   3.52   3.58   3.62   3.68
          3.75   3.86   4.16   4.18   4.82   5.32   5.45   5.84   6.01   7.13
          7.99   9.31   9.99  10.49  10.75  11.05  11.40  11.75  12.24  12.49
         12.60  13.22  13.51  13.59  14.28  15.32  16.42  17.30  17.61  18.05
         18.31  25.01  25.03  25.20  25.31  25.60  26.91  27.02  27.15  27.24
         27.53  27.68  27.90  28.09  28.70  28.91  29.16  29.17  29.54  29.64
         30.19  30.82  31.54  33.97  34.14  34.33  34.63  34.79  34.97  35.37
         35.60  35.65  35.82  35.84  35.94  35.96  36.16  36.17  36.32  36.33
         36.41  36.50  36.55  37.40  37.65  38.13  38.19  38.39  38.94  40.19
         40.27  40.34  41.03  41.48  41.75  42.03  42.24  42.26  42.31  42.40
         43.16  43.29  43.32  43.41  43.80  43.89  43.90  43.93  43.97  45.59
         46.40  46.75  46.84  47.11  47.27  47.66  47.68  48.75  50.54  51.13
         51.70  52.69
  56  1 -20.09 -20.09 -19.92 -19.92 -19.75 -19.75 -19.75 -19.75 -19.74  -7.25
         -7.00  -7.00  -7.00  -7.00  -6.48  -6.47  -5.76  -5.76  -5.76  -5.76
         -5.75  -5.75  -5.52  -5.52  -5.41  -5.41  -5.39  -5.14  -5.14  -5.05
         -5.05  -4.49  -4.49  -4.49  -4.49  -4.45   0.48   0.48   1.83   1.83
          2.91   2.91   3.11   3.11   3.51   3.60   3.60   3.60   3.60   3.79
          3.79   3.79   3.79   4.22   4.73   5.67   5.67   5.67   5.67   7.55
          7.55   9.69   9.69  10.87  10.87  10.87  10.87  12.01  12.01  12.57
         12.57  13.45  13.53  13.53  14.75  14.75  16.23  17.88  17.88  17.88
         17.88  25.02  25.26  25.26  25.26  25.26  27.03  27.03  27.39  27.39
         27.55  27.55  27.70  27.70  28.96  28.96  28.96  28.96  29.91  29.91
         30.55  30.55  31.16  34.28  34.28  34.28  34.28  34.52  35.40  35.64
         35.64  35.64  35.64  35.88  35.88  35.88  35.88  36.18  36.24  36.24
         36.53  36.53  36.91  36.91  37.44  38.19  38.19  38.62  38.62  40.62
         40.62  41.05  41.05  41.05  41.05  42.25  42.25  42.25  42.25  42.31
         43.33  43.50  43.50  43.50  43.50  43.75  43.75  43.84  43.84  46.30
         46.30  46.78  46.78  46.78  46.78  47.72  48.17  48.17  51.17  51.17
         52.09  52.09
  56  2 -20.09 -20.09 -19.92 -19.92 -19.75 -19.75 -19.75 -19.75 -19.74  -7.25
         -7.00  -7.00  -7.00  -7.00  -6.48  -6.47  -5.76  -5.76  -5.76  -5.76
         -5.75  -5.75  -5.52  -5.52  -5.41  -5.41  -5.39  -5.14  -5.14  -5.05
         -5.05  -4.49  -4.49  -4.49  -4.49  -4.45   0.48   0.48   1.83   1.83
          2.91   2.91   3.11   3.11   3.51   3.60   3.60   3.60   3.60   3.79
          3.79   3.79   3.79   4.22   4.74   5.67   5.67   5.67   5.67   7.55
          7.55   9.69   9.69  10.87  10.87  10.87  10.87  12.01  12.01  12.57
         12.57  13.45  13.53  13.53  14.75  14.75  16.23  17.88  17.88  17.88
         17.88  25.02  25.26  25.26  25.26  25.26  27.03  27.03  27.39  27.39
         27.55  27.55  27.70  27.70  28.96  28.96  28.96  28.96  29.91  29.91
         30.55  30.55  31.16  34.28  34.28  34.28  34.28  34.53  35.40  35.64
         35.64  35.64  35.64  35.88  35.88  35.88  35.88  36.18  36.24  36.24
         36.53  36.53  36.91  36.91  37.44  38.19  38.19  38.62  38.62  40.62
         40.62  41.05  41.05  41.05  41.05  42.25  42.25  42.25  42.25  42.31
         43.33  43.50  43.50  43.50  43.50  43.75  43.75  43.84  43.84  46.30
         46.30  46.78  46.78  46.78  46.78  47.72  48.17  48.17  51.17  51.17
         52.09  52.09
siesta: Fermi energy =      -0.949876 eV

siesta: Program's energy decomposition (eV):
siesta: Ebs     =      -663.022522
siesta: Eions   =      5767.274450
siesta: Ena     =       593.091928
siesta: Ekin    =      3009.716014
siesta: Enl     =      -967.136334
siesta: Eso     =         0.000000
siesta: Eldau   =         0.000000
siesta: DEna    =       -16.408039
siesta: DUscf   =         8.982212
siesta: DUext   =         0.000000
siesta: Enegf   =         0.000000
siesta: Exc     =     -1121.472383
siesta: eta*DQ  =         0.000000
siesta: Emadel  =         0.000000
siesta: Emeta   =         0.000000
siesta: Emolmec =         0.000000
siesta: Ekinion =         0.000000
siesta: Eharris =     -4260.501053
siesta: Etot    =     -4260.501052
siesta: FreeEng =     -4260.501052

siesta: Final energy (eV):
siesta:  Band Struct. =    -663.022522
siesta:       Kinetic =    3009.716014
siesta:       Hartree =   23355.450448
siesta:       Eldau   =       0.000000
siesta:       Eso     =       0.000000
siesta:    Ext. field =       0.000000
siesta:       Enegf   =       0.000000
siesta:   Exch.-corr. =   -1121.472383
siesta:  Ion-electron =  -49076.558108
siesta:       Ion-ion =   19572.362977
siesta:       Ekinion =       0.000000
siesta:         Total =   -4260.501052
siesta:         Fermi =      -0.949876

siesta: Stress tensor (static) (eV/Ang**3):
siesta:    -0.000761    0.000052    0.000000
siesta:     0.000052   -0.000751    0.000000
siesta:     0.000000    0.000000    0.000005

siesta: Cell volume =       4241.992602 Ang**3

siesta: Pressure (static):
siesta:                Solid            Molecule  Units
siesta:           0.00000547          0.00000494  Ry/Bohr**3
siesta:           0.00050225          0.00045388  eV/Ang**3
siesta:           0.80470098          0.72720127  kBar
(Free)E+ p_basis*V_orbitals  =       -4253.390250
(Free)Eharris+ p_basis*V_orbitals  =       -4253.390252
     spin moment: S , {S} =   -0.00000       0.0       0.0  -0.00000

siesta: Electric dipole (a.u.)  =   -0.000000   -0.000000   -0.023055
siesta: Electric dipole (Debye) =   -0.000000   -0.000000   -0.058601

>> End of run:   1-JUL-2019  16:40:40
Job completed
