
                           ***********************       
                           *  WELCOME TO SIESTA  *       
                           ***********************       

reinit: Reading from standard input
reinit: Dumped input in INPUT_TMP.00608
************************** Dump of input data file ****************************
############### Chemical info ###############
NumberOfSpecies        1
%block ChemicalSpeciesLabel
  1  26  Fe
%endblock ChemicalSpeciesLabel
PAO.EnergyShift  100 meV
PAO.SplitNorm      0.15
%block PAO.Basis
 Fe   2
   n=4   0   2   P
    0.0   0.0
   n=3   2   2
    0.0   0.0
%endblock PAO.Basis
xc.functional         GGA
xc.authors            PBE
############## Geomtrical info ##############
SystemName   fe2DFM
SystemLabel  fe2DFM
LatticeConstant  1.0d0 Ang
%block LatticeVectors
  20.000000000   0.000000000    0.000000000
   0.000000000  20.000000000    0.000000000
   0.000000000   0.000000000   20.000000000
%endblock LatticeVectors
NumberOfAtoms       2
AtomicCoordinatesFormat   Ang
%block AtomicCoordinatesAndAtomicSpecies
    0.00000   0.00000   0.00000  1
    2.50000   0.00000   0.00000  1
%endblock AtomicCoordinatesAndAtomicSpecies
#UseSaveData     T
#SolutionMethod  diagon
#%block DM.InitSpin
#  1  +3.   0.  0.
#  2  +3.   0.  0.
#%endblock DM.InitSpin
#%block kgrid_Monkhorst_Pack
#  11   0   0   0.0
#   0  11   0   0.0
#   0   0   1   0.0
#%endblock kgrid_Monkhorst_Pack
 ################ SCF options #############
#ElectronicTemperature   0.010 eV
MaxSCFIterations        10 #300
DM.MixingWeight         0.01 #0.001
MeshCutoff              300.0 Ry
DM.Tolerance            0.000004
DM.NumberPulay          7
DM.UseSaveDM            T
DM.History.Depth         0
#DM.MixSCF1              F
DM.NumberKick           25
#MixHamiltonian          true
#SCF.H.Converge          true
#SCF.H.Tolerance         0.003 eV
#Diag.DivideAndConquer F
#Diag.Use2D F
 ################ MD options #############
MD.TypeOfRun        LUA
MD.NumCGsteps       0
#MD.MaxCGDispl       0.1 Ang
#MD.MaxForceTol      0.01 eV/Ang
#WriteCoorStep       true
#WriteForces         true
 ################ DOS options #############
#WriteMullikenPop     1
#MullikenInSCF T
Spin                 collinear
Lua.Script conv_meshcutoff.lua
************************** End of input data file *****************************

reinit: -----------------------------------------------------------------------
reinit: System Name: fe2DFM
reinit: -----------------------------------------------------------------------
reinit: System Label: fe2DFM
reinit: -----------------------------------------------------------------------
Siesta Version: siesta-4.1--736
Architecture  : unknown
Compiler flags: mpif90 -O2 -fPIC -ftree-vectorize
PP flags      : -DFC_HAVE_ABORT -DMPI -DFC_HAVE_FLUSH -DFC_HAVE_ABORT -DGRID_DP -DPHI_GRID_SP -DSIESTA__FLOOK
Libraries     :  /usr/lib/libscalapack-openmpi.so   libsiestaLAPACK.a libsiestaBLAS.a libfdict.a /usr/lib/libblacsF77init-openmpi.so /usr/lib/libblacsCinit-openmpi.so /usr/lib/libblacs-openmpi.so  -lflookall -ldl
PARALLEL version

* Running on 8 nodes in parallel
>> Start of run:  18-JUN-2019  10:44:42

initatom: Reading input for the pseudopotentials and atomic orbitals ----------
Species number:   1 Atomic number:   26 Label: Fe

Ground state valence configuration:   4s02  3d06
Reading pseudopotential information in formatted form from Fe.psf

Pseudopotential generated from a relativistic atomic calculation
There are spin-orbit pseudopotentials available
Spin-orbit interaction is not included in this calculation

Valence configuration for pseudopotential generation:
4s( 1.00) rc: 2.47
4p( 0.00) rc: 2.47
3d( 7.00) rc: 0.70
4f( 0.00) rc: 2.00
For Fe, standard SIESTA heuristics set lmxkb to 3
 (one more than the basis l, including polarization orbitals).
Use PS.lmax or PS.KBprojectors blocks to override.
 Warning: Empty PAO shell. l =           1
 Will have a KB projector anyway...

<basis_specs>
===============================================================================
Fe                   Z=  26    Mass=  55.850        Charge= 0.17977+309
Lmxo=2 Lmxkb= 3    BasisType=split      Semic=F
L=0  Nsemic=0  Cnfigmx=4
          n=1  nzeta=2  polorb=1
            splnorm:   0.15000    
               vcte:    0.0000    
               rinn:    0.0000    
               qcoe:    0.0000    
               qyuk:    0.0000    
               qwid:   0.10000E-01
                rcs:    0.0000      0.0000    
            lambdas:    1.0000      1.0000    
L=1  Nsemic=0  Cnfigmx=4
L=2  Nsemic=0  Cnfigmx=3
          n=1  nzeta=2  polorb=0
            splnorm:   0.15000    
               vcte:    0.0000    
               rinn:    0.0000    
               qcoe:    0.0000    
               qyuk:    0.0000    
               qwid:   0.10000E-01
                rcs:    0.0000      0.0000    
            lambdas:    1.0000      1.0000    
-------------------------------------------------------------------------------
L=0  Nkbl=1  erefs: 0.17977+309
L=1  Nkbl=1  erefs: 0.17977+309
L=2  Nkbl=1  erefs: 0.17977+309
L=3  Nkbl=1  erefs: 0.17977+309
===============================================================================
</basis_specs>

atom: Called for Fe                    (Z =  26)

read_vps: Pseudopotential generation method:
read_vps: ATM3      Troullier-Martins                       
Total valence charge:    8.00000

read_vps: Pseudopotential includes a core correction:
read_vps: Pseudo-core for xc-correction

xc_check: Exchange-correlation functional:
xc_check: GGA Perdew, Burke & Ernzerhof 1996
V l=0 = -2*Zval/r beyond r=  2.7993
V l=1 = -2*Zval/r beyond r=  2.7993
V l=2 = -2*Zval/r beyond r=  2.7993
V l=3 = -2*Zval/r beyond r=  2.7993
All V_l potentials equal beyond r=  2.4397
This should be close to max(r_c) in ps generation
All pots = -2*Zval/r beyond r=  2.7993

VLOCAL1: 99.0% of the norm of Vloc inside      7.293 Ry
VLOCAL1: 99.9% of the norm of Vloc inside     16.621 Ry
atom: Maximum radius for 4*pi*r*r*local-pseudopot. charge    2.94283
atom: Maximum radius for r*vlocal+2*Zval:    2.59703
GHOST: No ghost state for L =  0
GHOST: No ghost state for L =  1
GHOST: No ghost state for L =  2
GHOST: No ghost state for L =  3

KBgen: Kleinman-Bylander projectors: 
   l= 0   rc=  3.055283   el= -0.312062   Ekb=  3.081013   kbcos=  0.258577
   l= 1   rc=  3.093715   el= -0.063822   Ekb=  1.442603   kbcos=  0.215095
   l= 2   rc=  2.662772   el= -0.281610   Ekb=-38.369291   kbcos= -0.519064
   l= 3   rc=  3.252338   el=  0.003178   Ekb= -1.735683   kbcos= -0.007697

KBgen: Total number of  Kleinman-Bylander projectors:   16
atom: -------------------------------------------------------------------------

atom: SANKEY-TYPE ORBITALS:
atom: Selected multiple-zeta basis: split     

SPLIT: Orbitals with angular momentum L= 0

SPLIT: Basis orbitals for state 4s

SPLIT: PAO cut-off radius determined from an
SPLIT: energy shift=  0.007350 Ry

   izeta = 1
                 lambda =    1.000000
                     rc =    7.705167
                 energy =   -0.304849
                kinetic =    0.268157
    potential(screened) =   -0.573006
       potential(ionic) =   -5.725066

   izeta = 2
                 rmatch =    6.631885
              splitnorm =    0.150000
                 energy =   -0.262508
                kinetic =    0.415325
    potential(screened) =   -0.677833
       potential(ionic) =   -6.254676

SPLIT: Orbitals with angular momentum L= 2

SPLIT: Basis orbitals for state 3d

SPLIT: PAO cut-off radius determined from an
SPLIT: energy shift=  0.007350 Ry

   izeta = 1
                 lambda =    1.000000
                     rc =    4.912997
                 energy =   -0.274710
                kinetic =   12.893147
    potential(screened) =  -13.167857
       potential(ionic) =  -22.671447

   izeta = 2
                 rmatch =    2.439674
              splitnorm =    0.150000
                 energy =   -0.033158
                kinetic =   17.664333
    potential(screened) =  -17.697491
       potential(ionic) =  -28.189775

POLgen: Perturbative polarization orbital with L=  1

POLgen: Polarization orbital for state 4s

   izeta = 1
                     rc =    7.705167
                 energy =   -0.020882
                kinetic =    0.506977
    potential(screened) =   -0.527859
       potential(ionic) =   -5.218787
atom: Total number of Sankey-type orbitals: 15

atm_pop: Valence configuration (for local Pseudopot. screening):
 4s( 2.00)                                                            
 4p( 0.00)                                                            
 3d( 6.00)                                                            
Vna: chval, zval:    8.00000   8.00000

Vna:  Cut-off radius for the neutral-atom potential:   7.705167
comcore: Pseudo-core radius Rcore=  3.826224

atom: _________________________________________________________________________

prinput: Basis input ----------------------------------------------------------

PAO.BasisType split     

%block ChemicalSpeciesLabel
    1   26 Fe                      # Species index, atomic number, species label
%endblock ChemicalSpeciesLabel

%block PAO.Basis                 # Define Basis set
Fe                    2                    # Species label, number of l-shells
 n=4   0   2 P   1                   # n, l, Nzeta, Polarization, NzetaPol
   7.705      6.632   
   1.000      1.000   
 n=3   2   2                         # n, l, Nzeta 
   4.913      2.440   
   1.000      1.000   
%endblock PAO.Basis

prinput: ----------------------------------------------------------------------

coor:   Atomic-coordinates input format  =     Cartesian coordinates
coor:                                          (in Angstroms)

siesta: Atomic coordinates (Bohr) and species
siesta:      0.00000   0.00000   0.00000  1        1
siesta:      4.72432   0.00000   0.00000  1        2

siesta: System type = molecule  

initatomlists: Number of atoms, orbitals, and projectors:      2    30    32

siesta: ******************** Simulation parameters ****************************
siesta:
siesta: The following are some of the parameters of the simulation.
siesta: A complete list of the parameters used, including default values,
siesta: can be found in file out.fdf
siesta:
redata: Spin configuration                          = collinear
redata: Number of spin components                   = 2
redata: Time-Reversal Symmetry                      = T
redata: Spin-spiral                                 = F
redata: Long output                                 =   F
redata: Number of Atomic Species                    =        1
redata: Charge density info will appear in .RHO file
redata: Write Mulliken Pop.                         = NO
redata: Mesh Cutoff                                 =   300.0000 Ry
redata: Net charge of the system                    =     0.0000 |e|
redata: Min. number of SCF Iter                     =        0
redata: Max. number of SCF Iter                     =       10
redata: SCF mix quantity                            = Hamiltonian
redata: Mix DM or H after convergence               =   F
redata: Recompute H after scf cycle                 =   F
redata: Mix DM in first SCF step                    =   T
redata: Write Pulay info on disk                    =   F
redata: New DM Mixing Weight                        =     0.0100
redata: New DM Occupancy tolerance                  = 0.000000000001
redata: Kick with linear mixing every               =       25 iterations
redata: DM Mixing Weight for Kicks                  =     0.5000
redata: Require Harris convergence for SCF          =   F
redata: Harris energy tolerance for SCF             =     0.000100 eV
redata: Require DM convergence for SCF              =   T
redata: DM tolerance for SCF                        =     0.0000
redata: Require EDM convergence for SCF             =   F
redata: EDM tolerance for SCF                       =     0.001000 eV
redata: Require H convergence for SCF               =   T
redata: Hamiltonian tolerance for SCF               =     0.001000 eV
redata: Require (free) Energy convergence for SCF   =   F
redata: (free) Energy tolerance for SCF             =     0.000100 eV
redata: Antiferro initial spin density              =   F
redata: Using Saved Data (generic)                  =   F
redata: Use continuation files for DM               =   T
redata: Neglect nonoverlap interactions             =   F
redata: Method of Calculation                       = Diagonalization
redata: Divide and Conquer                          =   T
redata: Electronic Temperature                      =   299.9869 K
redata: Fix the spin of the system                  =   F
redata: Dynamics option                             = LUA
mix.SCF: Pulay mixing                            = Pulay
mix.SCF:    Variant                              = stable
mix.SCF:    History steps                        = 7
mix.SCF:    Linear mixing weight                 =     0.010000
mix.SCF:    Mixing weight                        =     0.010000
mix.SCF:    SVD condition                        = 0.1000E-07
mix.SCF:    Restart steps                        = 24
mix.SCF:    Restart save steps                   = 1
mix.SCF:    Number of mixing iterations          = 24
mix.SCF:    Following mixer                      = Linear-Kick
mix.SCF: Linear mixing                           = Linear-Kick
mix.SCF:    Mixing weight                        =     0.500000
mix.SCF:    Number of mixing iterations          = 1
mix.SCF:    Following mixer                      = Pulay
mix.SCF: Spin-component mixing                   all
redata: ***********************************************************************

%block SCF.Mixers
  Pulay
  Linear-Kick
%endblock SCF.Mixers

%block SCF.Mixer.Pulay
  # Mixing method
  method pulay
  variant stable

  # Mixing options
  weight 0.0100
  weight.linear 0.0100
  history 7
  restart 24
  restart.save 1

  # Continuation options
  iterations 24
  next Linear-Kick
%endblock SCF.Mixer.Pulay

%block SCF.Mixer.Linear-Kick
  # Mixing method
  method linear

  # Mixing options
  weight 0.5000

  # Continuation options
  iterations 1
  next Pulay
%endblock SCF.Mixer.Linear-Kick

Size of DM history Fstack: 0
Total number of electrons:    16.000000
Total ionic charge:    16.000000

* ProcessorY, Blocksize:    2   4


* Orbital distribution balance (max,min):     4     2

 Kpoints in:            1 . Kpoints trimmed:            1

siesta: k-grid: Number of k-points =     1
siesta: k-grid: Cutoff (effective) =    10.000 Ang
siesta: k-grid: Supercell and displacements
siesta: k-grid:    1   0   0      0.000
siesta: k-grid:    0   1   0      0.000
siesta: k-grid:    0   0   1      0.000

==============================================================================
------------------------------------------------------------------------------
              This Part Generated By LUA for INITALIZE Stage                          
------------------------------------------------------------------------------
LUA: The Starting Mesh-cutoff is   :  150.000 Ry
LUA: The Max Iterations is         :  10 
LUA: The Mixing Weight is          : 0.010000 Ry
LUA: The DM Tolerance is           : 0.000004 Ry
LUA: The Electronic Temperature is :    0.002 Ry
LUA: The Mixer Weight is           :    0.010 Ry
LUA: The Number of Pulay is        :   7 
LUA: The Number of Kick is         :  25 
==============================================================================


                     ====================================
                        LUA coord. step =      0
                     ====================================

outcell: Unit cell vectors (Ang):
       20.000000    0.000000    0.000000
        0.000000   20.000000    0.000000
        0.000000    0.000000   20.000000

outcell: Cell vector modules (Ang)   :   20.000000   20.000000   20.000000
outcell: Cell angles (23,13,12) (deg):     90.0000     90.0000     90.0000
outcell: Cell volume (Ang**3)        :   8000.0000
<dSpData1D:S at geom step 0
  <sparsity:sparsity for geom step 0
    nrows_g=30 nrows=4 sparsity=.1333 nnzs=120, refcount: 7>
  <dData1D:(new from dSpData1D) n=120, refcount: 1>
refcount: 1>
new_DM -- step:     1
Initializing Density Matrix...

Attempting to read DM from file... Failed...
DM filled with atomic data:
<dSpData2D:DM initialized from atoms
  <sparsity:sparsity for geom step 0
    nrows_g=30 nrows=4 sparsity=.1333 nnzs=120, refcount: 8>
  <dData2D:DM n=120 m=2, refcount: 1>
refcount: 1>

initDM: Initial spin polarization (Qup-Qdown) =    8.000000

No. of atoms with KB's overlaping orbs in proc 0. Max # of overlaps:       2      30
New grid distribution:   1
           1       1:   75    1:   38    1:   19
           2       1:   75    1:   38   20:   38
           3       1:   75    1:   38   39:   57
           4       1:   75    1:   38   58:   75
           5       1:   75   39:   75    1:   19
           6       1:   75   39:   75   20:   38
           7       1:   75   39:   75   39:   57
           8       1:   75   39:   75   58:   75

InitMesh: MESH =   150 x   150 x   150 =     3375000
InitMesh: (bp) =    75 x    75 x    75 =      421875
InitMesh: Mesh cutoff (required, used) =   150.000   155.462 Ry
ExtMesh (bp) on 0 =   139 x   102 x    83 =     1176774
New grid distribution:   2
           1      11:   75   29:   75    1:   30
           2       1:   10   29:   75    1:   30
           3      11:   75    1:   31   31:   75
           4       1:   10    1:   31   31:   75
           5      11:   75    1:   28    1:   30
           6       1:   10    1:   28    1:   30
           7      12:   75   32:   75   31:   75
           8       1:   11   32:   75   31:   75
New grid distribution:   3
           1      17:   75    1:   15    1:   20
           2       1:   16   26:   75   21:   75
           3      17:   75    1:   25   21:   75
           4       1:   16    1:   25   21:   75
           5      17:   75   16:   75    1:   20
           6       1:   16   16:   75    1:   20
           7      17:   75   26:   75   21:   75
           8       1:   16    1:   15    1:   20
Setting up quadratic distribution...
ExtMesh (bp) on 0 =   129 x   111 x    94 =     1345986
PhiOnMesh: Number of (b)points on node 0 =                91650
PhiOnMesh: nlist on node 0 =                27376

stepf: Fermi-Dirac step function

siesta: Program's energy decomposition (eV):
siesta: Ebs     =       334.193706
siesta: Eions   =      1276.209793
siesta: Ena     =        38.825380
siesta: Ekin    =      3142.499179
siesta: Enl     =     -2625.188670
siesta: Eso     =         0.000000
siesta: Eldau   =         0.000000
siesta: DEna    =       -44.088906
siesta: DUscf   =        74.655698
siesta: DUext   =         0.000000
siesta: Exc     =      -896.564015
siesta: eta*DQ  =         0.000000
siesta: Emadel  =         0.000000
siesta: Emeta   =         0.000000
siesta: Emolmec =         0.000000
siesta: Ekinion =         0.000000
siesta: Eharris =     -1477.298978
siesta: Etot    =     -1586.071126
siesta: FreeEng =     -1586.093602

        iscf     Eharris(eV)        E_KS(eV)     FreeEng(eV)     dDmax    Ef(eV) dHmax(eV)
   scf:    1    -1477.298978    -1586.071126    -1586.093602  0.999882-10.211432 39.903601
timer: Routine,Calls,Time,% = IterSCF        1       1.058  46.75
LUA: scf count        :   0 
LUA: The Number of Pulay is        :  45 
LUA: The Number of Kick is         :  25 
LUA: The Mixer Weight is           :    0.150 Ry
LUA: The Mixing Weight is          : 0.150000 Ry
   scf:    2    -1588.993953    -1587.544852    -1587.566455  0.019229 -9.885227 38.978764
LUA: scf count        :   1 
LUA: The Number of Pulay is        :  45 
LUA: The Number of Kick is         :  25 
LUA: The Mixer Weight is           :    0.250 Ry
LUA: The Mixing Weight is          : 0.250000 Ry
   scf:    3     -475.978940    -1262.574158    -1262.574186  1.321230 -0.562174117.615850
LUA: scf count        :   2 
LUA: The Number of Pulay is        :  45 
LUA: The Number of Kick is         :  25 
LUA: The Mixer Weight is           :    0.150 Ry
LUA: The Mixing Weight is          : 0.150000 Ry
   scf:    4    -1635.268985    -1593.765699    -1593.769382  1.319816 -0.081406 38.985348
LUA: scf count        :   3 
LUA: The Number of Pulay is        :  45 
LUA: The Number of Kick is         :  25 
LUA: The Mixer Weight is           :    0.150 Ry
LUA: The Mixing Weight is          : 0.150000 Ry
   scf:    5    -1602.970992    -1624.308556    -1624.309036  1.089047 -3.599042 21.253706
LUA: scf count        :   4 
LUA: The Number of Pulay is        :  45 
LUA: The Number of Kick is         :  25 
LUA: The Mixer Weight is           :    0.150 Ry
LUA: The Mixing Weight is          : 0.150000 Ry
   scf:    6    -1623.538822    -1623.925733    -1623.926120  0.004782 -3.617419 21.638561
LUA: scf count        :   5 
LUA: The Number of Pulay is        :  45 
LUA: The Number of Kick is         :  25 
LUA: The Mixer Weight is           :    0.250 Ry
LUA: The Mixing Weight is          : 0.250000 Ry
   scf:    7    -1626.005554    -1624.989403    -1624.989854  0.019112 -3.692284 20.880014
LUA: scf count        :   6 
LUA: The Number of Pulay is        :  45 
LUA: The Number of Kick is         :  25 
LUA: The Mixer Weight is           :    0.250 Ry
LUA: The Mixing Weight is          : 0.250000 Ry
   scf:    8    -1636.240203    -1633.133062    -1633.158428  0.528080 -3.242682  5.966749
LUA: scf count        :   7 
LUA: The Number of Pulay is        :  45 
LUA: The Number of Kick is         :  25 
LUA: The Mixer Weight is           :    0.150 Ry
LUA: The Mixing Weight is          : 0.150000 Ry
   scf:    9    -1616.549328    -1626.798150    -1626.799112  0.511430 -3.662744 18.992196
LUA: scf count        :   8 
LUA: The Number of Pulay is        :  45 
LUA: The Number of Kick is         :  25 
LUA: The Mixer Weight is           :    0.150 Ry
LUA: The Mixing Weight is          : 0.150000 Ry
   scf:   10    -1628.819503    -1633.427933    -1633.456536  0.562279 -2.740474  6.474310
LUA: scf count        :   9 
LUA: The Number of Pulay is        :  45 
LUA: The Number of Kick is         :  25 
LUA: The Mixer Weight is           :    0.150 Ry
LUA: The Mixing Weight is          : 0.150000 Ry
SCF_NOT_CONV: SCF did not converge in maximum number of steps.
Geom step, scf iteration, dmax:   0 10    0.475849

Using DM_out to compute the final energy and forces
No. of atoms with KB's overlaping orbs in proc 0. Max # of overlaps:       2      30

siesta: E_KS(eV) =            -1633.4279

siesta: E_KS - E_eggbox =     -1633.4279

siesta: Total spin polarization (Qup-Qdown) =    8.000000

siesta: Atomic forces (eV/Ang):
----------------------------------------
   Tot    2.224111   -0.000000   -0.000000
----------------------------------------
   Max    2.739674
   Res    1.138099    sqrt( Sum f_i^2 / 3N )
----------------------------------------
   Max    2.739674    constrained

Stress-tensor-Voigt (kbar):        1.07       -0.46       -0.46       -0.00       -0.00        0.00
(Free)E + p*V (eV/cell)    -1633.7244
Target enthalpy (eV/cell)    -1633.4565
==============================================================================
------------------------------------------------------------------------------
              This Part Generated By LUA for MOVE Stage                          
------------------------------------------------------------------------------
Is It Converged Last Time          : false
Last Time dDmax was                : 0.562279
LUA: The Starting Mesh-cutoff is   :  155.462 Ry
LUA: The Max Iterations is         :  10 
LUA: The Mixing Weight is          : 0.150000 Ry
LUA: The DM Tolerance is           : 0.000004 Ry
LUA: The Electronic Temperature is :    0.002 Ry
LUA: The Mixer Weight is           :    0.150 Ry
LUA: The Number of Pulay is        :  45 
LUA: The Number of Kick is         :  25 
==============================================================================

false
LUA: The Max Iterations Changed to :  50 
LUA: The Mixer Weight Changed to    :    0.100 Ry
LUA: The Number of Pulay Changed to :  45 
LUA: The Number of Kick Changed to  :  25 

                     ====================================
                        LUA coord. step =      1
                     ====================================

outcell: Unit cell vectors (Ang):
       20.000000    0.000000    0.000000
        0.000000   20.000000    0.000000
        0.000000    0.000000   20.000000

outcell: Cell vector modules (Ang)   :   20.000000   20.000000   20.000000
outcell: Cell angles (23,13,12) (deg):     90.0000     90.0000     90.0000
outcell: Cell volume (Ang**3)        :   8000.0000
<dSpData1D:S at geom step 1
  <sparsity:sparsity for geom step 1
    nrows_g=30 nrows=4 sparsity=.1333 nnzs=120, refcount: 7>
  <dData1D:(new from dSpData1D) n=120, refcount: 1>
refcount: 1>
new_DM -- step:     2
Initializing Density Matrix...

Attempting to read DM from file... Succeeded...
DM from file:
<dSpData2D:IO-DM: fe2DFM.DM
  <sparsity:IO-DM: fe2DFM.DM
    nrows_g=30 nrows=4 sparsity=.1333 nnzs=120, refcount: 1>
  <dData2D:(new from dSpData2D) n=120 m=2, refcount: 1>
refcount: 1>

initDM: Initial spin polarization (Qup-Qdown) =    8.000000

No. of atoms with KB's overlaping orbs in proc 0. Max # of overlaps:       2      30
New grid distribution:   1
           1       1:   75    1:   38    1:   19
           2       1:   75    1:   38   20:   38
           3       1:   75    1:   38   39:   57
           4       1:   75    1:   38   58:   75
           5       1:   75   39:   75    1:   19
           6       1:   75   39:   75   20:   38
           7       1:   75   39:   75   39:   57
           8       1:   75   39:   75   58:   75

InitMesh: MESH =   150 x   150 x   150 =     3375000
InitMesh: (bp) =    75 x    75 x    75 =      421875
InitMesh: Mesh cutoff (required, used) =   150.000   155.462 Ry
ExtMesh (bp) on 0 =   139 x   102 x    83 =     1176774
New grid distribution:   2
           1      11:   75   29:   75    1:   30
           2       1:   10   29:   75    1:   30
           3      11:   75    1:   31   31:   75
           4       1:   10    1:   31   31:   75
           5      11:   75    1:   28    1:   30
           6       1:   10    1:   28    1:   30
           7      12:   75   32:   75   31:   75
           8       1:   11   32:   75   31:   75
New grid distribution:   3
           1      17:   75    1:   15    1:   20
           2       1:   16   26:   75   21:   75
           3      17:   75    1:   25   21:   75
           4       1:   16    1:   25   21:   75
           5      17:   75   16:   75    1:   20
           6       1:   16   16:   75    1:   20
           7      17:   75   26:   75   21:   75
           8       1:   16    1:   15    1:   20
Setting up quadratic distribution...
ExtMesh (bp) on 0 =   129 x   111 x    94 =     1345986
PhiOnMesh: Number of (b)points on node 0 =                91650
PhiOnMesh: nlist on node 0 =                27376

        iscf     Eharris(eV)        E_KS(eV)     FreeEng(eV)     dDmax    Ef(eV) dHmax(eV)
   scf:    1    -1270.788185    -1515.994030    -1516.005442  0.748395 -5.859077 70.792470
LUA: scf count        :  10 
LUA: The Number of Pulay is        :  45 
LUA: The Number of Kick is         :  25 
LUA: The Mixer Weight is           :    0.150 Ry
LUA: The Mixing Weight is          : 0.150000 Ry
   scf:    2     1055.253673     -902.796647     -902.796647  1.054237 -6.012493197.317858
LUA: scf count        :  11 
LUA: The Number of Pulay is        :  45 
LUA: The Number of Kick is         :  25 
LUA: The Mixer Weight is           :    0.150 Ry
LUA: The Mixing Weight is          : 0.150000 Ry
   scf:    3    -1265.336697    -1093.201010    -1093.201055  1.054557 -1.300427136.162117
LUA: scf count        :  12 
LUA: The Number of Pulay is        :  45 
LUA: The Number of Kick is         :  25 
LUA: The Mixer Weight is           :    0.150 Ry
LUA: The Mixing Weight is          : 0.150000 Ry
   scf:    4     1684.300071     -891.101993     -891.129181  1.249899 -8.390600157.790914
LUA: scf count        :  13 
LUA: The Number of Pulay is        :  45 
LUA: The Number of Kick is         :  25 
LUA: The Mixer Weight is           :    0.150 Ry
LUA: The Mixing Weight is          : 0.150000 Ry
   scf:    5    -1875.630081    -1519.647293    -1519.685302  1.174097 -5.590710 65.549468
LUA: scf count        :  14 
LUA: The Number of Pulay is        :  45 
LUA: The Number of Kick is         :  25 
LUA: The Mixer Weight is           :    0.150 Ry
LUA: The Mixing Weight is          : 0.150000 Ry
   scf:    6      679.251129    -1022.158003    -1022.194508  0.985322 -1.435100149.714193
LUA: scf count        :  15 
LUA: The Number of Pulay is        :  45 
LUA: The Number of Kick is         :  25 
LUA: The Mixer Weight is           :    0.150 Ry
LUA: The Mixing Weight is          : 0.150000 Ry
   scf:    7    -1179.524008    -1102.378267    -1102.378267  0.727263 -1.099923135.674020
LUA: scf count        :  16 
LUA: The Number of Pulay is        :  45 
LUA: The Number of Kick is         :  25 
LUA: The Mixer Weight is           :    0.150 Ry
LUA: The Mixing Weight is          : 0.150000 Ry
   scf:    8    -1515.522698    -1324.607067    -1324.638832  0.750163 -1.865447 96.048846
LUA: scf count        :  17 
LUA: The Number of Pulay is        :  45 
LUA: The Number of Kick is         :  25 
LUA: The Mixer Weight is           :    0.150 Ry
LUA: The Mixing Weight is          : 0.150000 Ry
   scf:    9    -1731.427847    -1602.729144    -1602.768763  0.973108 -3.600969 30.266854
LUA: scf count        :  18 
LUA: The Number of Pulay is        :  45 
LUA: The Number of Kick is         :  25 
LUA: The Mixer Weight is           :    0.150 Ry
LUA: The Mixing Weight is          : 0.150000 Ry
   scf:   10    -1166.729711    -1425.160979    -1425.212631  0.783014 -2.769772 73.555361
LUA: scf count        :  19 
LUA: The Number of Pulay is        :  45 
LUA: The Number of Kick is         :  25 
LUA: The Mixer Weight is           :    0.150 Ry
LUA: The Mixing Weight is          : 0.150000 Ry
   scf:   11    -1143.824817    -1551.059846    -1551.095007  0.863871 -5.295197 53.292782
LUA: scf count        :  20 
LUA: The Number of Pulay is        :  45 
LUA: The Number of Kick is         :  25 
LUA: The Mixer Weight is           :    0.150 Ry
LUA: The Mixing Weight is          : 0.150000 Ry
   scf:   12     -255.617477    -1280.724966    -1280.736280  0.966837 -1.577369104.386651
LUA: scf count        :  21 
LUA: The Number of Pulay is        :  45 
LUA: The Number of Kick is         :  25 
LUA: The Mixer Weight is           :    0.150 Ry
LUA: The Mixing Weight is          : 0.150000 Ry
   scf:   13    -1295.784935    -1594.040103    -1594.047892  0.924438 -3.825293 35.043588
LUA: scf count        :  22 
LUA: The Number of Pulay is        :  45 
LUA: The Number of Kick is         :  25 
LUA: The Mixer Weight is           :    0.150 Ry
LUA: The Mixing Weight is          : 0.150000 Ry
   scf:   14    -1046.051232    -1485.111536    -1485.150033  0.906279 -3.124611 62.610399
LUA: scf count        :  23 
LUA: The Number of Pulay is        :  45 
LUA: The Number of Kick is         :  25 
LUA: The Mixer Weight is           :    0.150 Ry
LUA: The Mixing Weight is          : 0.150000 Ry
   scf:   15    -1681.266081    -1605.139112    -1605.174253  0.905302 -3.194893 29.821408
LUA: scf count        :  24 
LUA: The Number of Pulay is        :  45 
LUA: The Number of Kick is         :  25 
LUA: The Mixer Weight is           :    0.150 Ry
LUA: The Mixing Weight is          : 0.150000 Ry
   scf:   16    -1636.903492    -1623.741409    -1623.755512  0.217109 -3.353106 20.639150
LUA: scf count        :  25 
LUA: The Number of Pulay is        :  45 
LUA: The Number of Kick is         :  25 
LUA: The Mixer Weight is           :    0.150 Ry
LUA: The Mixing Weight is          : 0.150000 Ry
   scf:   17    -1627.250742    -1625.555704    -1625.563165  0.038839 -3.384991 19.196805
LUA: scf count        :  26 
LUA: The Number of Pulay is        :  45 
LUA: The Number of Kick is         :  25 
LUA: The Mixer Weight is           :    0.250 Ry
LUA: The Mixing Weight is          : 0.250000 Ry
   scf:   18    -1636.017164    -1633.258872    -1633.298433  0.461608 -3.197697  6.910615
LUA: scf count        :  27 
LUA: The Number of Pulay is        :  45 
LUA: The Number of Kick is         :  25 
LUA: The Mixer Weight is           :    0.150 Ry
LUA: The Mixing Weight is          : 0.150000 Ry
   scf:   19    -1632.479094    -1632.908613    -1632.943620  0.075672 -3.084894  8.057522
LUA: scf count        :  28 
LUA: The Number of Pulay is        :  45 
LUA: The Number of Kick is         :  25 
LUA: The Mixer Weight is           :    0.250 Ry
LUA: The Mixing Weight is          : 0.250000 Ry
   scf:   20    -1624.699014    -1631.969673    -1631.993882  0.359318 -3.096346  7.905867
LUA: scf count        :  29 
LUA: The Number of Pulay is        :  45 
LUA: The Number of Kick is         :  25 
LUA: The Mixer Weight is           :    0.150 Ry
LUA: The Mixing Weight is          : 0.150000 Ry
   scf:   21    -1634.288090    -1634.166832    -1634.191233  0.157210 -3.099762  1.854202
LUA: scf count        :  30 
LUA: The Number of Pulay is        :  45 
LUA: The Number of Kick is         :  25 
LUA: The Mixer Weight is           :    0.150 Ry
LUA: The Mixing Weight is          : 0.150000 Ry
   scf:   22    -1631.787082    -1633.425565    -1633.432229  0.120045 -3.332576  5.046012
LUA: scf count        :  31 
LUA: The Number of Pulay is        :  45 
LUA: The Number of Kick is         :  25 
LUA: The Mixer Weight is           :    0.150 Ry
LUA: The Mixing Weight is          : 0.150000 Ry
   scf:   23    -1634.312372    -1634.280662    -1634.286239  0.128611 -3.493973  0.446545
LUA: scf count        :  32 
LUA: The Number of Pulay is        :  45 
LUA: The Number of Kick is         :  25 
LUA: The Mixer Weight is           :    0.150 Ry
LUA: The Mixing Weight is          : 0.150000 Ry
   scf:   24    -1634.221647    -1634.263012    -1634.268484  0.011978 -3.470465  1.092389
mix: Pulay -- resetting history
mix: switching mixer --> Linear-Kick
LUA: scf count        :  33 
LUA: The Number of Pulay is        :  45 
LUA: The Number of Kick is         :  25 
LUA: The Mixer Weight is           :    0.250 Ry
LUA: The Mixing Weight is          : 0.250000 Ry
   scf:   25    -1634.245412    -1634.277396    -1634.283263  0.039690 -3.418939  0.775093
mix: switching mixer --> Pulay
LUA: scf count        :  34 
LUA: The Number of Pulay is        :  45 
LUA: The Number of Kick is         :  25 
LUA: The Mixer Weight is           :    0.250 Ry
LUA: The Mixing Weight is          : 0.250000 Ry
   scf:   26    -1616.322174    -1628.397686    -1628.398009  0.262173 -3.368284 12.247113
LUA: scf count        :  35 
LUA: The Number of Pulay is        :  45 
LUA: The Number of Kick is         :  25 
LUA: The Mixer Weight is           :    0.150 Ry
LUA: The Mixing Weight is          : 0.150000 Ry
   scf:   27    -1633.839093    -1634.275280    -1634.281012  0.252361 -3.421482  0.702597
LUA: scf count        :  36 
LUA: The Number of Pulay is        :  45 
LUA: The Number of Kick is         :  25 
LUA: The Mixer Weight is           :    0.150 Ry
LUA: The Mixing Weight is          : 0.150000 Ry
   scf:   28    -1634.215491    -1634.271178    -1634.276568  0.030616 -3.391932  0.694951
LUA: scf count        :  37 
LUA: The Number of Pulay is        :  45 
LUA: The Number of Kick is         :  25 
LUA: The Mixer Weight is           :    0.250 Ry
LUA: The Mixing Weight is          : 0.250000 Ry
   scf:   29    -1634.105864    -1634.243711    -1634.249530  0.042218 -3.401746  1.105638
LUA: scf count        :  38 
LUA: The Number of Pulay is        :  45 
LUA: The Number of Kick is         :  25 
LUA: The Mixer Weight is           :    0.250 Ry
LUA: The Mixing Weight is          : 0.250000 Ry
   scf:   30    -1634.290108    -1634.287362    -1634.292965  0.026423 -3.403341  0.029032
LUA: scf count        :  39 
LUA: The Number of Pulay is        :  45 
LUA: The Number of Kick is         :  25 
LUA: The Mixer Weight is           :    0.250 Ry
LUA: The Mixing Weight is          : 0.250000 Ry
   scf:   31    -1634.287195    -1634.287296    -1634.292920  0.001940 -3.406751  0.057137
LUA: scf count        :  40 
LUA: The Number of Pulay is        :  45 
LUA: The Number of Kick is         :  25 
LUA: The Mixer Weight is           :    0.250 Ry
LUA: The Mixing Weight is          : 0.250000 Ry
   scf:   32    -1634.283434    -1634.285788    -1634.291475  0.005818 -3.407359  0.206818
LUA: scf count        :  41 
LUA: The Number of Pulay is        :  45 
LUA: The Number of Kick is         :  25 
LUA: The Mixer Weight is           :    0.250 Ry
LUA: The Mixing Weight is          : 0.250000 Ry
   scf:   33    -1634.284320    -1634.285084    -1634.290794  0.002140 -3.408361  0.249514
LUA: scf count        :  42 
LUA: The Number of Pulay is        :  45 
LUA: The Number of Kick is         :  25 
LUA: The Mixer Weight is           :    0.250 Ry
LUA: The Mixing Weight is          : 0.250000 Ry
   scf:   34    -1634.287589    -1634.287390    -1634.293079  0.004780 -3.407993  0.008616
LUA: scf count        :  43 
LUA: The Number of Pulay is        :  45 
LUA: The Number of Kick is         :  25 
LUA: The Mixer Weight is           :    0.250 Ry
LUA: The Mixing Weight is          : 0.250000 Ry
   scf:   35    -1634.287339    -1634.287364    -1634.293078  0.002558 -3.408351  0.021280
LUA: scf count        :  44 
LUA: The Number of Pulay is        :  45 
LUA: The Number of Kick is         :  25 
LUA: The Mixer Weight is           :    0.250 Ry
LUA: The Mixing Weight is          : 0.250000 Ry
   scf:   36    -1634.287366    -1634.287354    -1634.293100  0.003606 -3.408486  0.012300
LUA: scf count        :  45 
LUA: The Number of Pulay is        :  45 
LUA: The Number of Kick is         :  25 
LUA: The Mixer Weight is           :    0.250 Ry
LUA: The Mixing Weight is          : 0.250000 Ry
   scf:   37    -1634.287339    -1634.287339    -1634.293110  0.003039 -3.408608  0.007235
LUA: scf count        :  46 
LUA: The Number of Pulay is        :  45 
LUA: The Number of Kick is         :  25 
LUA: The Mixer Weight is           :    0.250 Ry
LUA: The Mixing Weight is          : 0.250000 Ry
   scf:   38    -1634.287314    -1634.287317    -1634.293114  0.003430 -3.409033  0.001810
LUA: scf count        :  47 
LUA: The Number of Pulay is        :  45 
LUA: The Number of Kick is         :  25 
LUA: The Mixer Weight is           :    0.250 Ry
LUA: The Mixing Weight is          : 0.250000 Ry
   scf:   39    -1634.287312    -1634.287315    -1634.293115  0.000417 -3.409184  0.000352
LUA: scf count        :  48 
LUA: The Number of Pulay is        :  45 
LUA: The Number of Kick is         :  25 
LUA: The Mixer Weight is           :    0.250 Ry
LUA: The Mixing Weight is          : 0.250000 Ry
   scf:   40    -1634.287312    -1634.287313    -1634.293115  0.000168 -3.409367  0.000483
LUA: scf count        :  49 
LUA: The Number of Pulay is        :  45 
LUA: The Number of Kick is         :  25 
LUA: The Mixer Weight is           :    0.250 Ry
LUA: The Mixing Weight is          : 0.250000 Ry
   scf:   41    -1634.287312    -1634.287313    -1634.293115  0.000045 -3.409426  0.000038
LUA: scf count        :  50 
LUA: The Number of Pulay is        :  45 
LUA: The Number of Kick is         :  25 
LUA: The Mixer Weight is           :    0.250 Ry
LUA: The Mixing Weight is          : 0.250000 Ry
   scf:   42    -1634.287312    -1634.287313    -1634.293115  0.000023 -3.409471  0.000121
LUA: scf count        :  51 
LUA: The Number of Pulay is        :  45 
LUA: The Number of Kick is         :  25 
LUA: The Mixer Weight is           :    0.250 Ry
LUA: The Mixing Weight is          : 0.250000 Ry
   scf:   43    -1634.287312    -1634.287313    -1634.293115  0.000021 -3.409475  0.000027
LUA: scf count        :  52 
LUA: The Number of Pulay is        :  45 
LUA: The Number of Kick is         :  25 
LUA: The Mixer Weight is           :    0.250 Ry
LUA: The Mixing Weight is          : 0.250000 Ry
   scf:   44    -1634.287313    -1634.287313    -1634.293115  0.000029 -3.409463  0.000021
LUA: scf count        :  53 
LUA: The Number of Pulay is        :  45 
LUA: The Number of Kick is         :  25 
LUA: The Mixer Weight is           :    0.250 Ry
LUA: The Mixing Weight is          : 0.250000 Ry
   scf:   45    -1634.287313    -1634.287313    -1634.293115  0.000007 -3.409464  0.000011
LUA: scf count        :  54 
LUA: The Number of Pulay is        :  45 
LUA: The Number of Kick is         :  25 
LUA: The Mixer Weight is           :    0.250 Ry
LUA: The Mixing Weight is          : 0.250000 Ry
   scf:   46    -1634.287313    -1634.287313    -1634.293115  0.000004 -3.409460  0.000003
LUA: scf count        :  55 
LUA: The Number of Pulay is        :  45 
LUA: The Number of Kick is         :  25 
LUA: The Mixer Weight is           :    0.250 Ry
LUA: The Mixing Weight is          : 0.250000 Ry
   scf:   47    -1634.287313    -1634.287313    -1634.293115  0.000002 -3.409461  0.000002

SCF Convergence by DM+H criterion
max |DM_out - DM_in|         :     0.0000015949
max |H_out - H_in|      (eV) :     0.0000022461
SCF cycle converged after 47 iterations
LUA: scf count        :  56 
LUA: The Number of Pulay is        :  45 
LUA: The Number of Kick is         :  25 
LUA: The Mixer Weight is           :    0.250 Ry
LUA: The Mixing Weight is          : 0.250000 Ry

Using DM_out to compute the final energy and forces
No. of atoms with KB's overlaping orbs in proc 0. Max # of overlaps:       2      30

siesta: E_KS(eV) =            -1634.2873

siesta: Total spin polarization (Qup-Qdown) =    7.999970

siesta: Atomic forces (eV/Ang):
----------------------------------------
   Tot    1.443982    0.000000   -0.000000
----------------------------------------
   Max    1.171511
   Res    0.491033    sqrt( Sum f_i^2 / 3N )
----------------------------------------
   Max    1.171511    constrained

Stress-tensor-Voigt (kbar):        0.40       -0.57       -0.57        0.00        0.00       -0.00
(Free)E + p*V (eV/cell)    -1633.0747
Target enthalpy (eV/cell)    -1634.2931
==============================================================================
------------------------------------------------------------------------------
              This Part Generated By LUA for MOVE Stage                          
------------------------------------------------------------------------------
Is It Converged Last Time          : true
Last Time dDmax was                : 0.000002
LUA: The Starting Mesh-cutoff is   :  155.462 Ry
LUA: The Max Iterations is         :  50 
LUA: The Mixing Weight is          : 0.250000 Ry
LUA: The DM Tolerance is           : 0.000004 Ry
LUA: The Electronic Temperature is :    0.002 Ry
LUA: The Mixer Weight is           :    0.250 Ry
LUA: The Number of Pulay is        :  45 
LUA: The Number of Kick is         :  25 
==============================================================================

true

siesta: Program's energy decomposition (eV):
siesta: Ebs     =       -88.538094
siesta: Eions   =      1276.209793
siesta: Ena     =        38.825380
siesta: Ekin    =      2335.264264
siesta: Enl     =     -1918.331866
siesta: Eso     =         0.000000
siesta: Eldau   =         0.000000
siesta: DEna    =       -10.689995
siesta: DUscf   =         4.066404
siesta: DUext   =         0.000000
siesta: Exc     =      -807.211708
siesta: eta*DQ  =         0.000000
siesta: Emadel  =         0.000000
siesta: Emeta   =         0.000000
siesta: Emolmec =         0.000000
siesta: Ekinion =         0.000000
siesta: Eharris =     -1634.287313
siesta: Etot    =     -1634.287313
siesta: FreeEng =     -1634.293115

siesta: Final energy (eV):
siesta:  Band Struct. =     -88.538094
siesta:       Kinetic =    2335.264264
siesta:       Hartree =    1253.200847
siesta:       Eldau   =       0.000000
siesta:       Eso     =       0.000000
siesta:    Ext. field =       0.000000
siesta:   Exch.-corr. =    -807.211708
siesta:  Ion-electron =   -4527.384704
siesta:       Ion-ion =     111.843988
siesta:       Ekinion =       0.000000
siesta:         Total =   -1634.287313
siesta:         Fermi =      -3.409461

siesta: Atomic forces (eV/Ang):
siesta:      1    1.171511   -0.000000   -0.000000
siesta:      2    0.272472    0.000000   -0.000000
siesta: ----------------------------------------
siesta:    Tot    1.443982    0.000000   -0.000000

siesta: Stress tensor (static) (eV/Ang**3):
siesta:     0.000253    0.000000   -0.000000
siesta:     0.000000   -0.000355    0.000000
siesta:    -0.000000    0.000000   -0.000355

siesta: Cell volume =       8000.000000 Ang**3

siesta: Pressure (static):
siesta:                Solid            Molecule  Units
siesta:           0.00000166          0.00000217  Ry/Bohr**3
siesta:           0.00015230          0.00019912  eV/Ang**3
siesta:           0.24401355          0.31903620  kBar
(Free)E+ p_basis*V_orbitals  =       -1632.217040
(Free)Eharris+ p_basis*V_orbitals  =       -1632.217040

siesta: Total spin polarization (Qup-Qdown) =    7.999970

siesta: Electric dipole (a.u.)  =    0.009057    0.000000   -0.000000
siesta: Electric dipole (Debye) =    0.023021    0.000000   -0.000000
>> End of run:  18-JUN-2019  10:45:13
Job completed
