
                           ***********************       
                           *  WELCOME TO SIESTA  *       
                           ***********************       

reinit: Reading from standard input
reinit: Dumped input in INPUT_TMP.90796
************************** Dump of input data file ****************************
############### Chemical info ###############
NumberOfSpecies        1
%block ChemicalSpeciesLabel
  1  26  Fe
%endblock ChemicalSpeciesLabel
PAO.EnergyShift  100 meV
PAO.SplitNorm      0.15
%block PAO.Basis
 Fe   2
   n=4   0   2   P
    0.0   0.0
   n=3   2   2
    0.0   0.0
%endblock PAO.Basis
xc.functional         GGA
xc.authors            PBE
############## Geomtrical info ##############
SystemName   fe2DFM
SystemLabel  fe2DFM
LatticeConstant  1.0d0 Ang
%block LatticeVectors
  20.000000000   0.000000000    0.000000000
   0.000000000  20.000000000    0.000000000
   0.000000000   0.000000000   20.000000000
%endblock LatticeVectors
NumberOfAtoms       2
AtomicCoordinatesFormat   Ang
%block AtomicCoordinatesAndAtomicSpecies
    0.00000   0.00000   0.00000  1
    2.50000   0.00000   0.00000  1
%endblock AtomicCoordinatesAndAtomicSpecies
#UseSaveData     T
#SolutionMethod  diagon
%block DM.InitSpin
  1  +3.   0.  0.
  2  +3.   0.  0.
%endblock DM.InitSpin
#%block kgrid_Monkhorst_Pack
#  11   0   0   0.0
#   0  11   0   0.0
#   0   0   1   0.0
#%endblock kgrid_Monkhorst_Pack
 ################ SCF options #############
#ElectronicTemperature   0.010 eV
MaxSCFIterations        300
DM.MixingWeight         0.01 #0.001
MeshCutoff              300.0 Ry
DM.Tolerance            0.000004
DM.NumberPulay          7
DM.UseSaveDM            T
DM.History.Depth         0
#DM.MixSCF1              F
DM.NumberKick           25
#MixHamiltonian          true
#SCF.H.Converge          true
#SCF.H.Tolerance         0.003 eV
#Diag.DivideAndConquer F
#Diag.Use2D F
 ################ MD options #############
MD.TypeOfRun        CG
MD.NumCGsteps       0
#MD.MaxCGDispl       0.1 Ang
#MD.MaxForceTol      0.01 eV/Ang
#WriteCoorStep       true
#WriteForces         true
 ################ DOS options #############
#WriteMullikenPop     1
#MullikenInSCF T
Spin                 collinear
Lua.Script conv_meshcutoff.lua
************************** End of input data file *****************************

reinit: -----------------------------------------------------------------------
reinit: System Name: fe2DFM
reinit: -----------------------------------------------------------------------
reinit: System Label: fe2DFM
reinit: -----------------------------------------------------------------------
Siesta Version: siesta-4.1--736
Architecture  : unknown
Compiler flags: mpif90 -O2 -fPIC -ftree-vectorize
PP flags      : -DFC_HAVE_ABORT -DMPI -DFC_HAVE_FLUSH -DFC_HAVE_ABORT -DGRID_DP -DPHI_GRID_SP -DSIESTA__FLOOK
Libraries     :  /usr/lib/libscalapack-openmpi.so   libsiestaLAPACK.a libsiestaBLAS.a libfdict.a /usr/lib/libblacsF77init-openmpi.so /usr/lib/libblacsCinit-openmpi.so /usr/lib/libblacs-openmpi.so  -lflookall -ldl
PARALLEL version

* Running on 8 nodes in parallel
>> Start of run:  17-JUN-2019  15:29:00

initatom: Reading input for the pseudopotentials and atomic orbitals ----------
Species number:   1 Atomic number:   26 Label: Fe

Ground state valence configuration:   4s02  3d06
Reading pseudopotential information in formatted form from Fe.psf

Pseudopotential generated from a relativistic atomic calculation
There are spin-orbit pseudopotentials available
Spin-orbit interaction is not included in this calculation

Valence configuration for pseudopotential generation:
4s( 1.00) rc: 2.47
4p( 0.00) rc: 2.47
3d( 7.00) rc: 0.70
4f( 0.00) rc: 2.00
For Fe, standard SIESTA heuristics set lmxkb to 3
 (one more than the basis l, including polarization orbitals).
Use PS.lmax or PS.KBprojectors blocks to override.
 Warning: Empty PAO shell. l =           1
 Will have a KB projector anyway...

<basis_specs>
===============================================================================
Fe                   Z=  26    Mass=  55.850        Charge= 0.17977+309
Lmxo=2 Lmxkb= 3    BasisType=split      Semic=F
L=0  Nsemic=0  Cnfigmx=4
          n=1  nzeta=2  polorb=1
            splnorm:   0.15000    
               vcte:    0.0000    
               rinn:    0.0000    
               qcoe:    0.0000    
               qyuk:    0.0000    
               qwid:   0.10000E-01
                rcs:    0.0000      0.0000    
            lambdas:    1.0000      1.0000    
L=1  Nsemic=0  Cnfigmx=4
L=2  Nsemic=0  Cnfigmx=3
          n=1  nzeta=2  polorb=0
            splnorm:   0.15000    
               vcte:    0.0000    
               rinn:    0.0000    
               qcoe:    0.0000    
               qyuk:    0.0000    
               qwid:   0.10000E-01
                rcs:    0.0000      0.0000    
            lambdas:    1.0000      1.0000    
-------------------------------------------------------------------------------
L=0  Nkbl=1  erefs: 0.17977+309
L=1  Nkbl=1  erefs: 0.17977+309
L=2  Nkbl=1  erefs: 0.17977+309
L=3  Nkbl=1  erefs: 0.17977+309
===============================================================================
</basis_specs>

atom: Called for Fe                    (Z =  26)

read_vps: Pseudopotential generation method:
read_vps: ATM3      Troullier-Martins                       
Total valence charge:    8.00000

read_vps: Pseudopotential includes a core correction:
read_vps: Pseudo-core for xc-correction

xc_check: Exchange-correlation functional:
xc_check: GGA Perdew, Burke & Ernzerhof 1996
V l=0 = -2*Zval/r beyond r=  2.7993
V l=1 = -2*Zval/r beyond r=  2.7993
V l=2 = -2*Zval/r beyond r=  2.7993
V l=3 = -2*Zval/r beyond r=  2.7993
All V_l potentials equal beyond r=  2.4397
This should be close to max(r_c) in ps generation
All pots = -2*Zval/r beyond r=  2.7993

VLOCAL1: 99.0% of the norm of Vloc inside      7.293 Ry
VLOCAL1: 99.9% of the norm of Vloc inside     16.621 Ry
atom: Maximum radius for 4*pi*r*r*local-pseudopot. charge    2.94283
atom: Maximum radius for r*vlocal+2*Zval:    2.59703
GHOST: No ghost state for L =  0
GHOST: No ghost state for L =  1
GHOST: No ghost state for L =  2
GHOST: No ghost state for L =  3

KBgen: Kleinman-Bylander projectors: 
   l= 0   rc=  3.055283   el= -0.312062   Ekb=  3.081013   kbcos=  0.258577
   l= 1   rc=  3.093715   el= -0.063822   Ekb=  1.442603   kbcos=  0.215095
   l= 2   rc=  2.662772   el= -0.281610   Ekb=-38.369291   kbcos= -0.519064
   l= 3   rc=  3.252338   el=  0.003178   Ekb= -1.735683   kbcos= -0.007697

KBgen: Total number of  Kleinman-Bylander projectors:   16
atom: -------------------------------------------------------------------------

atom: SANKEY-TYPE ORBITALS:
atom: Selected multiple-zeta basis: split     

SPLIT: Orbitals with angular momentum L= 0

SPLIT: Basis orbitals for state 4s

SPLIT: PAO cut-off radius determined from an
SPLIT: energy shift=  0.007350 Ry

   izeta = 1
                 lambda =    1.000000
                     rc =    7.705167
                 energy =   -0.304849
                kinetic =    0.268157
    potential(screened) =   -0.573006
       potential(ionic) =   -5.725066

   izeta = 2
                 rmatch =    6.631885
              splitnorm =    0.150000
                 energy =   -0.262508
                kinetic =    0.415325
    potential(screened) =   -0.677833
       potential(ionic) =   -6.254676

SPLIT: Orbitals with angular momentum L= 2

SPLIT: Basis orbitals for state 3d

SPLIT: PAO cut-off radius determined from an
SPLIT: energy shift=  0.007350 Ry

   izeta = 1
                 lambda =    1.000000
                     rc =    4.912997
                 energy =   -0.274710
                kinetic =   12.893147
    potential(screened) =  -13.167857
       potential(ionic) =  -22.671447

   izeta = 2
                 rmatch =    2.439674
              splitnorm =    0.150000
                 energy =   -0.033158
                kinetic =   17.664333
    potential(screened) =  -17.697491
       potential(ionic) =  -28.189775

POLgen: Perturbative polarization orbital with L=  1

POLgen: Polarization orbital for state 4s

   izeta = 1
                     rc =    7.705167
                 energy =   -0.020882
                kinetic =    0.506977
    potential(screened) =   -0.527859
       potential(ionic) =   -5.218787
atom: Total number of Sankey-type orbitals: 15

atm_pop: Valence configuration (for local Pseudopot. screening):
 4s( 2.00)                                                            
 4p( 0.00)                                                            
 3d( 6.00)                                                            
Vna: chval, zval:    8.00000   8.00000

Vna:  Cut-off radius for the neutral-atom potential:   7.705167
comcore: Pseudo-core radius Rcore=  3.826224

atom: _________________________________________________________________________

prinput: Basis input ----------------------------------------------------------

PAO.BasisType split     

%block ChemicalSpeciesLabel
    1   26 Fe                      # Species index, atomic number, species label
%endblock ChemicalSpeciesLabel

%block PAO.Basis                 # Define Basis set
Fe                    2                    # Species label, number of l-shells
 n=4   0   2 P   1                   # n, l, Nzeta, Polarization, NzetaPol
   7.705      6.632   
   1.000      1.000   
 n=3   2   2                         # n, l, Nzeta 
   4.913      2.440   
   1.000      1.000   
%endblock PAO.Basis

prinput: ----------------------------------------------------------------------

coor:   Atomic-coordinates input format  =     Cartesian coordinates
coor:                                          (in Angstroms)

siesta: Atomic coordinates (Bohr) and species
siesta:      0.00000   0.00000   0.00000  1        1
siesta:      4.72432   0.00000   0.00000  1        2

siesta: System type = molecule  

initatomlists: Number of atoms, orbitals, and projectors:      2    30    32

siesta: ******************** Simulation parameters ****************************
siesta:
siesta: The following are some of the parameters of the simulation.
siesta: A complete list of the parameters used, including default values,
siesta: can be found in file out.fdf
siesta:
redata: Spin configuration                          = collinear
redata: Number of spin components                   = 2
redata: Time-Reversal Symmetry                      = T
redata: Spin-spiral                                 = F
redata: Long output                                 =   F
redata: Number of Atomic Species                    =        1
redata: Charge density info will appear in .RHO file
redata: Write Mulliken Pop.                         = NO
redata: Mesh Cutoff                                 =   300.0000 Ry
redata: Net charge of the system                    =     0.0000 |e|
redata: Min. number of SCF Iter                     =        0
redata: Max. number of SCF Iter                     =      300
redata: SCF mix quantity                            = Hamiltonian
redata: Mix DM or H after convergence               =   F
redata: Recompute H after scf cycle                 =   F
redata: Mix DM in first SCF step                    =   T
redata: Write Pulay info on disk                    =   F
redata: New DM Mixing Weight                        =     0.0100
redata: New DM Occupancy tolerance                  = 0.000000000001
redata: Kick with linear mixing every               =       25 iterations
redata: DM Mixing Weight for Kicks                  =     0.5000
redata: Require Harris convergence for SCF          =   F
redata: Harris energy tolerance for SCF             =     0.000100 eV
redata: Require DM convergence for SCF              =   T
redata: DM tolerance for SCF                        =     0.0000
redata: Require EDM convergence for SCF             =   F
redata: EDM tolerance for SCF                       =     0.001000 eV
redata: Require H convergence for SCF               =   T
redata: Hamiltonian tolerance for SCF               =     0.001000 eV
redata: Require (free) Energy convergence for SCF   =   F
redata: (free) Energy tolerance for SCF             =     0.000100 eV
redata: Antiferro initial spin density              =   F
redata: Using Saved Data (generic)                  =   F
redata: Use continuation files for DM               =   T
redata: Neglect nonoverlap interactions             =   F
redata: Method of Calculation                       = Diagonalization
redata: Divide and Conquer                          =   T
redata: Electronic Temperature                      =   299.9869 K
redata: Fix the spin of the system                  =   F
redata: Dynamics option                             = Single-point calculation
mix.SCF: Pulay mixing                            = Pulay
mix.SCF:    Variant                              = stable
mix.SCF:    History steps                        = 7
mix.SCF:    Linear mixing weight                 =     0.010000
mix.SCF:    Mixing weight                        =     0.010000
mix.SCF:    SVD condition                        = 0.1000E-07
mix.SCF:    Restart steps                        = 24
mix.SCF:    Restart save steps                   = 1
mix.SCF:    Number of mixing iterations          = 24
mix.SCF:    Following mixer                      = Linear-Kick
mix.SCF: Linear mixing                           = Linear-Kick
mix.SCF:    Mixing weight                        =     0.500000
mix.SCF:    Number of mixing iterations          = 1
mix.SCF:    Following mixer                      = Pulay
mix.SCF: Spin-component mixing                   all
redata: ***********************************************************************

%block SCF.Mixers
  Pulay
  Linear-Kick
%endblock SCF.Mixers

%block SCF.Mixer.Pulay
  # Mixing method
  method pulay
  variant stable

  # Mixing options
  weight 0.0100
  weight.linear 0.0100
  history 7
  restart 24
  restart.save 1

  # Continuation options
  iterations 24
  next Linear-Kick
%endblock SCF.Mixer.Pulay

%block SCF.Mixer.Linear-Kick
  # Mixing method
  method linear

  # Mixing options
  weight 0.5000

  # Continuation options
  iterations 1
  next Pulay
%endblock SCF.Mixer.Linear-Kick

DM_history_depth set to one: no extrapolation allowed by default for geometry relaxation
Size of DM history Fstack: 1
Total number of electrons:    16.000000
Total ionic charge:    16.000000

* ProcessorY, Blocksize:    2   4


* Orbital distribution balance (max,min):     4     2

 Kpoints in:            1 . Kpoints trimmed:            1

siesta: k-grid: Number of k-points =     1
siesta: k-grid: Cutoff (effective) =    10.000 Ang
siesta: k-grid: Supercell and displacements
siesta: k-grid:    1   0   0      0.000
siesta: k-grid:    0   1   0      0.000
siesta: k-grid:    0   0   1      0.000

siesta-lua: WARNING
siesta-lua: File conv_meshcutoff.lua could not be found!
siesta-lua: WARNING

                     ====================================
                        Single-point calculation
                     ====================================

outcell: Unit cell vectors (Ang):
       20.000000    0.000000    0.000000
        0.000000   20.000000    0.000000
        0.000000    0.000000   20.000000

outcell: Cell vector modules (Ang)   :   20.000000   20.000000   20.000000
outcell: Cell angles (23,13,12) (deg):     90.0000     90.0000     90.0000
outcell: Cell volume (Ang**3)        :   8000.0000
<dSpData1D:S at geom step 0
  <sparsity:sparsity for geom step 0
    nrows_g=30 nrows=4 sparsity=.1333 nnzs=120, refcount: 7>
  <dData1D:(new from dSpData1D) n=120, refcount: 1>
refcount: 1>
new_DM -- step:     1
Initializing Density Matrix...

Attempting to read DM from file... Failed...
DM filled with atomic data (user-defined):
<dSpData2D:DM initialized from atoms
  <sparsity:sparsity for geom step 0
    nrows_g=30 nrows=4 sparsity=.1333 nnzs=120, refcount: 8>
  <dData2D:DM n=120 m=2, refcount: 1>
refcount: 1>

initDM: Initial spin polarization (Qup-Qdown) =    6.000000

No. of atoms with KB's overlaping orbs in proc 0. Max # of overlaps:       2      30
New grid distribution:   1
           1       1:  108    1:   54    1:   27
           2       1:  108    1:   54   28:   54
           3       1:  108    1:   54   55:   81
           4       1:  108    1:   54   82:  108
           5       1:  108   55:  108    1:   27
           6       1:  108   55:  108   28:   54
           7       1:  108   55:  108   55:   81
           8       1:  108   55:  108   82:  108

InitMesh: MESH =   216 x   216 x   216 =    10077696
InitMesh: (bp) =   108 x   108 x   108 =     1259712
InitMesh: Mesh cutoff (required, used) =   300.000   322.366 Ry
ExtMesh (bp) on 0 =   200 x   146 x   119 =     3474800
New grid distribution:   2
           1      16:  108   46:  108    1:   47
           2       1:   15   46:  108    1:   47
           3      16:  108    1:   47   48:  108
           4       1:   15    1:   47   48:  108
           5      15:  108    1:   45    1:   47
           6       1:   14    1:   45    1:   47
           7      16:  108   48:  108   48:  108
           8       1:   15   48:  108   48:  108
New grid distribution:   3
           1      24:  108   29:  108    1:   37
           2      24:  108    1:   28    1:   37
           3      24:  108    1:   41   38:  108
           4       1:   23    1:   41   38:  108
           5       1:   23   29:  108    1:   37
           6       1:   23    1:   28    1:   37
           7      24:  108   42:  108   38:  108
           8       1:   23   42:  108   38:  108
Setting up quadratic distribution...
ExtMesh (bp) on 0 =   185 x   155 x   139 =     3985825
PhiOnMesh: Number of (b)points on node 0 =               275373
PhiOnMesh: nlist on node 0 =                76979

stepf: Fermi-Dirac step function

siesta: Program's energy decomposition (eV):
siesta: Ebs     =       329.609117
siesta: Eions   =      1276.209793
siesta: Ena     =        38.825380
siesta: Ekin    =      3138.233378
siesta: Enl     =     -2621.460724
siesta: Eso     =         0.000000
siesta: Eldau   =         0.000000
siesta: DEna    =       -43.970588
siesta: DUscf   =        73.475865
siesta: DUext   =         0.000000
siesta: Exc     =      -895.039455
siesta: eta*DQ  =         0.000000
siesta: Emadel  =         0.000000
siesta: Emeta   =         0.000000
siesta: Emolmec =         0.000000
siesta: Ekinion =         0.000000
siesta: Eharris =     -1480.546374
siesta: Etot    =     -1586.145936
siesta: FreeEng =     -1586.189572

        iscf     Eharris(eV)        E_KS(eV)     FreeEng(eV)     dDmax    Ef(eV) dHmax(eV)
   scf:    1    -1480.546374    -1586.145936    -1586.189572  0.999866-10.740670 38.450706
timer: Routine,Calls,Time,% = IterSCF        1       3.240  59.81
   scf:    2    -1589.018843    -1587.586621    -1587.629550  0.012801-10.411703 37.689375
   scf:    3     -784.588738    -1395.653744    -1395.689627  2.085555  2.218906 78.844193
   scf:    4    -1636.457489    -1631.795489    -1631.831931  1.844222 -3.407351  5.592192
   scf:    5    -1611.074060    -1623.340015    -1623.359160  0.228309 -5.694351 17.139618
   scf:    6    -1622.711508    -1623.026864    -1623.046172  0.004307 -5.767625 17.426193
   scf:    7    -1620.289821    -1621.676248    -1621.696726  0.020045 -6.094829 18.662959
   scf:    8    -1637.362792    -1630.896622    -1630.941346  0.183850 -4.328480  8.701405
   scf:    9    -1632.040858    -1631.488968    -1631.524093  0.031551 -4.037746  7.483969
   scf:   10    -1631.228241    -1631.360257    -1631.399191  0.013188 -4.151426  7.806202
   scf:   11    -1473.221665    -1583.383916    -1583.388849  0.884632 -0.008080 37.739103
   scf:   12    -1652.282908    -1624.499180    -1624.506693  0.550747 -1.505369 17.042010
   scf:   13    -1623.722896    -1631.957164    -1631.971308  0.723405 -3.407696  6.281605
   scf:   14    -1613.351018    -1628.237251    -1628.247101  0.934140 -2.205025 12.940603
   scf:   15    -1632.500551    -1630.522431    -1630.556407  0.239682 -2.384366  9.715312
   scf:   16    -1635.140334    -1633.386965    -1633.399883  0.757318 -2.680823  4.143715
   scf:   17    -1633.408991    -1633.398032    -1633.410966  0.005686 -2.695866  4.094124
   scf:   18    -1622.337609    -1628.916493    -1628.928432  0.931204 -2.311672 11.912527
   scf:   19    -1635.806302    -1633.362649    -1633.388959  0.894779 -2.678232  3.973189
   scf:   20    -1633.735128    -1633.564807    -1633.587242  0.041611 -3.062529  2.677173
   scf:   21    -1623.910031    -1630.610063    -1630.616735  0.503765 -4.414290 10.073464
   scf:   22    -1632.419547    -1633.519005    -1633.539589  0.518462 -2.935459  3.109810
   scf:   23    -1633.385589    -1633.454033    -1633.474745  0.013191 -2.815438  3.567883
   scf:   24    -1633.498086    -1633.476229    -1633.496628  0.005551 -2.845624  3.426730
mix: Pulay -- resetting history
mix: switching mixer --> Linear-Kick
   scf:   25    -1633.494814    -1633.485557    -1633.504278  0.008669 -2.884833  3.369209
mix: switching mixer --> Pulay
   scf:   26    -1625.974939    -1631.390082    -1631.408790  0.469031 -3.727173  8.419410
   scf:   27    -1632.943749    -1633.610680    -1633.639747  0.446132 -3.104411  2.215294
   scf:   28    -1633.753322    -1633.699500    -1633.739057  0.092489 -3.339597  0.679676
   scf:   29    -1633.465260    -1633.602339    -1633.631397  0.092097 -3.076858  2.314258
   scf:   30    -1633.762853    -1633.772774    -1633.788480  0.353303 -3.634070  1.965001
   scf:   31    -1633.684075    -1633.729480    -1633.749956  0.013590 -3.636897  2.228358
   scf:   32    -1633.674312    -1633.702321    -1633.724926  0.007902 -3.640762  2.391659
   scf:   33    -1633.952994    -1633.849902    -1633.856218  0.041405 -3.420924  0.716780
   scf:   34    -1633.853447    -1633.855183    -1633.861121  0.022382 -3.225009  0.205451
   scf:   35    -1633.855735    -1633.855644    -1633.861828  0.007408 -3.276995  0.132716
   scf:   36    -1633.842642    -1633.850495    -1633.856037  0.029317 -3.131318  0.689274
   scf:   37    -1633.860344    -1633.856518    -1633.862216  0.015818 -3.249550  0.151089
   scf:   38    -1633.856857    -1633.856786    -1633.862560  0.004736 -3.280310  0.007594
   scf:   39    -1633.856790    -1633.856788    -1633.862560  0.000112 -3.279754  0.009339
   scf:   40    -1633.856853    -1633.856821    -1633.862564  0.000327 -3.286301  0.001086
   scf:   41    -1633.856824    -1633.856822    -1633.862564  0.000100 -3.285812  0.001883
   scf:   42    -1633.856820    -1633.856821    -1633.862564  0.000060 -3.286098  0.000157
   scf:   43    -1633.856821    -1633.856821    -1633.862564  0.000015 -3.285939  0.000053
   scf:   44    -1633.856821    -1633.856821    -1633.862564  0.000009 -3.285920  0.000022
   scf:   45    -1633.856821    -1633.856821    -1633.862564  0.000000 -3.285920  0.000021

SCF Convergence by DM+H criterion
max |DM_out - DM_in|         :     0.0000002103
max |H_out - H_in|      (eV) :     0.0000214219
SCF cycle converged after 45 iterations

Using DM_out to compute the final energy and forces
No. of atoms with KB's overlaping orbs in proc 0. Max # of overlaps:       2      30

siesta: E_KS(eV) =            -1633.8568

siesta: E_KS - E_eggbox =     -1633.8568

siesta: Total spin polarization (Qup-Qdown) =    8.000000

siesta: Atomic forces (eV/Ang):
----------------------------------------
   Tot    0.000000   -0.000000    0.000000
----------------------------------------
   Max    1.180301
   Res    0.681447    sqrt( Sum f_i^2 / 3N )
----------------------------------------
   Max    1.180301    constrained

Stress-tensor-Voigt (kbar):        0.61        0.02        0.02        0.00        0.00        0.00
(Free)E + p*V (eV/cell)    -1634.9392
Target enthalpy (eV/cell)    -1633.8626

siesta: Program's energy decomposition (eV):
siesta: Ebs     =       -88.783286
siesta: Eions   =      1276.209793
siesta: Ena     =        38.825380
siesta: Ekin    =      2334.500988
siesta: Enl     =     -1917.647858
siesta: Eso     =         0.000000
siesta: Eldau   =         0.000000
siesta: DEna    =       -10.655599
siesta: DUscf   =         4.003023
siesta: DUext   =         0.000000
siesta: Exc     =      -806.672963
siesta: eta*DQ  =         0.000000
siesta: Emadel  =         0.000000
siesta: Emeta   =         0.000000
siesta: Emolmec =         0.000000
siesta: Ekinion =         0.000000
siesta: Eharris =     -1633.856821
siesta: Etot    =     -1633.856821
siesta: FreeEng =     -1633.862564

siesta: Final energy (eV):
siesta:  Band Struct. =     -88.783286
siesta:       Kinetic =    2334.500988
siesta:       Hartree =    1250.348282
siesta:       Eldau   =       0.000000
siesta:       Eso     =       0.000000
siesta:    Ext. field =       0.000000
siesta:   Exch.-corr. =    -806.672963
siesta:  Ion-electron =   -4521.800180
siesta:       Ion-ion =     109.767051
siesta:       Ekinion =       0.000000
siesta:         Total =   -1633.856821
siesta:         Fermi =      -3.285920

siesta: Atomic forces (eV/Ang):
siesta:      1    1.180301   -0.000000    0.000000
siesta:      2   -1.180301    0.000000   -0.000000
siesta: ----------------------------------------
siesta:    Tot    0.000000   -0.000000    0.000000

siesta: Stress tensor (static) (eV/Ang**3):
siesta:     0.000381   -0.000000   -0.000000
siesta:     0.000000    0.000011    0.000000
siesta:     0.000000    0.000000    0.000011

siesta: Cell volume =       8000.000000 Ang**3

siesta: Pressure (static):
siesta:                Solid            Molecule  Units
siesta:          -0.00000147         -0.00000013  Ry/Bohr**3
siesta:          -0.00013457         -0.00001163  eV/Ang**3
siesta:          -0.21561335         -0.01862669  kBar
(Free)E+ p_basis*V_orbitals  =       -1631.786490
(Free)Eharris+ p_basis*V_orbitals  =       -1631.786490

siesta: Total spin polarization (Qup-Qdown) =    8.000000

siesta: Electric dipole (a.u.)  =   -0.000013    0.000000   -0.000000
siesta: Electric dipole (Debye) =   -0.000032    0.000000   -0.000000
>> End of run:  17-JUN-2019  15:30:11
Job completed
