Siesta Version  : trunk-764
Architecture    : unknown
Compiler version: GNU Fortran (Ubuntu 5.4.0-6ubuntu1~16.04.10) 5.4.0 20160609
Compiler flags  : mpif90 -O2 -fPIC -ftree-vectorize
PP flags        : -DFC_HAVE_ABORT -DMPI -DFC_HAVE_FLUSH -DFC_HAVE_ABORT -DGRID_DP -DPHI_GRID_SP -DSIESTA__FLOOK -DSIESTA__FLOOK -DSIESTA__DIAG_2STAGE
Libraries       : libsiestaLAPACK.a libsiestaBLAS.a libfdict.a libfdict.a  /usr/lib/libscalapack-openmpi.so   libsiestaLAPACK.a libsiestaBLAS.a libfdict.a libfdict.a /usr/lib/libblacsF77init-openmpi.so /usr/lib/libblacsCinit-openmpi.so /usr/lib/libblacs-openmpi.so  -lflookall -ldl -lflookall -ldl
Directory       : /home/ICN2/aakhtar/Projects/flos/Test-Cases/MeshCutoff-Convergence
PARALLEL version
Lua support

* Running on 8 nodes in parallel
>> Start of run:  18-JUN-2019  12:59:34

                           ***********************       
                           *  WELCOME TO SIESTA  *       
                           ***********************       

reinit: Reading from standard input
reinit: Dumped input in INPUT_TMP.92357
************************** Dump of input data file ****************************
SystemName          Water molecule
SystemLabel         test
NumberOfAtoms       3
NumberOfSpecies     2
MeshCutoff  50. Ry
%block ChemicalSpeciesLabel
 1  8  O      # Species index, atomic number, species label
 2  1  H
%endblock ChemicalSpeciesLabel
AtomicCoordinatesFormat  Ang
%block AtomicCoordinatesAndAtomicSpecies
 0.000  0.000  0.000  1
 0.757  0.586  0.000  2
-0.757  0.586  0.000  2
%endblock AtomicCoordinatesAndAtomicSpecies
#MaxSCFIterations        5
MD.TypeOfRun LUA
Lua.Script conv_meshcutoff.lua
************************** End of input data file *****************************

reinit: -----------------------------------------------------------------------
reinit: System Name: Water molecule
reinit: -----------------------------------------------------------------------
reinit: System Label: test
reinit: -----------------------------------------------------------------------

initatom: Reading input for the pseudopotentials and atomic orbitals ----------
Species number:   1 Atomic number:    8 Label: O
Species number:   2 Atomic number:    1 Label: H

Ground state valence configuration:   2s02  2p04
Reading pseudopotential information in formatted form from O.psf

Valence configuration for pseudopotential generation:
2s( 2.00) rc: 1.14
2p( 4.00) rc: 1.14
3d( 0.00) rc: 1.14
4f( 0.00) rc: 1.14
Ground state valence configuration:   1s01
Reading pseudopotential information in formatted form from H.psf

Valence configuration for pseudopotential generation:
1s( 1.00) rc: 1.25
2p( 0.00) rc: 1.25
3d( 0.00) rc: 1.25
4f( 0.00) rc: 1.25
For O, standard SIESTA heuristics set lmxkb to 3
 (one more than the basis l, including polarization orbitals).
Use PS.lmax or PS.KBprojectors blocks to override.
For H, standard SIESTA heuristics set lmxkb to 2
 (one more than the basis l, including polarization orbitals).
Use PS.lmax or PS.KBprojectors blocks to override.

<basis_specs>
===============================================================================
O                    Z=   8    Mass=  16.000        Charge= 0.17977+309
Lmxo=1 Lmxkb= 3    BasisType=split      Semic=F
L=0  Nsemic=0  Cnfigmx=2
          i=1  nzeta=2  polorb=0  (2s)
            splnorm:   0.15000    
               vcte:    0.0000    
               rinn:    0.0000    
               qcoe:    0.0000    
               qyuk:    0.0000    
               qwid:   0.10000E-01
                rcs:    0.0000      0.0000    
            lambdas:    1.0000      1.0000    
L=1  Nsemic=0  Cnfigmx=2
          i=1  nzeta=2  polorb=1  (2p)
            splnorm:   0.15000    
               vcte:    0.0000    
               rinn:    0.0000    
               qcoe:    0.0000    
               qyuk:    0.0000    
               qwid:   0.10000E-01
                rcs:    0.0000      0.0000    
            lambdas:    1.0000      1.0000    
-------------------------------------------------------------------------------
L=0  Nkbl=1  erefs: 0.17977+309
L=1  Nkbl=1  erefs: 0.17977+309
L=2  Nkbl=1  erefs: 0.17977+309
L=3  Nkbl=1  erefs: 0.17977+309
===============================================================================
</basis_specs>

atom: Called for O                     (Z =   8)

read_vps: Pseudopotential generation method:
read_vps: ATM3      Troullier-Martins                       
Total valence charge:    6.00000

xc_check: Exchange-correlation functional:
xc_check: Ceperley-Alder
V l=0 = -2*Zval/r beyond r=  1.1278
V l=1 = -2*Zval/r beyond r=  1.1278
V l=2 = -2*Zval/r beyond r=  1.1278
V l=3 = -2*Zval/r beyond r=  1.1138
All V_l potentials equal beyond r=  1.1278
This should be close to max(r_c) in ps generation
All pots = -2*Zval/r beyond r=  1.1278

VLOCAL1: 99.0% of the norm of Vloc inside     34.126 Ry
VLOCAL1: 99.9% of the norm of Vloc inside     77.774 Ry
atom: Maximum radius for 4*pi*r*r*local-pseudopot. charge    1.37759
atom: Maximum radius for r*vlocal+2*Zval:    1.18566

KBgen: Kleinman-Bylander projectors: 
GHOST: No ghost state for L =  0
   l= 0   rc=  1.294105   el= -1.742414   Ekb=  9.135903   kbcos=  0.326910
GHOST: No ghost state for L =  1
   l= 1   rc=  1.294105   el= -0.676589   Ekb= -8.124878   kbcos= -0.395047
GHOST: No ghost state for L =  2
   l= 2   rc=  1.448233   el=  0.002386   Ekb= -2.039267   kbcos= -0.003484
GHOST: No ghost state for L =  3
   l= 3   rc=  1.561052   el=  0.003508   Ekb= -0.799141   kbcos= -0.000344

KBgen: Total number of  Kleinman-Bylander projectors:   16
atom: -------------------------------------------------------------------------

atom: SANKEY-TYPE ORBITALS:
atom: Selected multiple-zeta basis: split     

SPLIT: Orbitals with angular momentum L= 0

SPLIT: Basis orbitals for state 2s

SPLIT: PAO cut-off radius determined from an
SPLIT: energy shift=  0.020000 Ry

   izeta = 1
                 lambda =    1.000000
                     rc =    3.305093
                 energy =   -1.723766
                kinetic =    1.614911
    potential(screened) =   -3.338677
       potential(ionic) =  -11.304675

   izeta = 2
                 rmatch =    2.510382
              splitnorm =    0.150000
                 energy =   -1.471299
                kinetic =    2.446434
    potential(screened) =   -3.917732
       potential(ionic) =  -12.476133

SPLIT: Orbitals with angular momentum L= 1

SPLIT: Basis orbitals for state 2p

SPLIT: PAO cut-off radius determined from an
SPLIT: energy shift=  0.020000 Ry

   izeta = 1
                 lambda =    1.000000
                     rc =    3.937239
                 energy =   -0.658841
                kinetic =    5.005986
    potential(screened) =   -5.664827
       potential(ionic) =  -13.452360

   izeta = 2
                 rmatch =    2.541963
              splitnorm =    0.150000
                 energy =   -0.367441
                kinetic =    7.530509
    potential(screened) =   -7.897949
       potential(ionic) =  -16.611953

POLgen: Perturbative polarization orbital with L=  2

POLgen: Polarization orbital for state 2p

   izeta = 1
                     rc =    3.937239
                 energy =    2.398520
                kinetic =    4.716729
    potential(screened) =   -2.318209
       potential(ionic) =   -8.603170
atom: Total number of Sankey-type orbitals: 13

atm_pop: Valence configuration (for local Pseudopot. screening):
 2s( 2.00)                                                            
 2p( 4.00)                                                            
Vna: chval, zval:    6.00000   6.00000

Vna:  Cut-off radius for the neutral-atom potential:   3.937239

atom: _________________________________________________________________________

<basis_specs>
===============================================================================
H                    Z=   1    Mass=  1.0100        Charge= 0.17977+309
Lmxo=0 Lmxkb= 2    BasisType=split      Semic=F
L=0  Nsemic=0  Cnfigmx=1
          i=1  nzeta=2  polorb=1  (1s)
            splnorm:   0.15000    
               vcte:    0.0000    
               rinn:    0.0000    
               qcoe:    0.0000    
               qyuk:    0.0000    
               qwid:   0.10000E-01
                rcs:    0.0000      0.0000    
            lambdas:    1.0000      1.0000    
-------------------------------------------------------------------------------
L=0  Nkbl=1  erefs: 0.17977+309
L=1  Nkbl=1  erefs: 0.17977+309
L=2  Nkbl=1  erefs: 0.17977+309
===============================================================================
</basis_specs>

atom: Called for H                     (Z =   1)

read_vps: Pseudopotential generation method:
read_vps: ATM3      Troullier-Martins                       
Total valence charge:    1.00000

xc_check: Exchange-correlation functional:
xc_check: Ceperley-Alder
V l=0 = -2*Zval/r beyond r=  1.2343
V l=1 = -2*Zval/r beyond r=  1.2189
V l=2 = -2*Zval/r beyond r=  1.2189
All V_l potentials equal beyond r=  1.2343
This should be close to max(r_c) in ps generation
All pots = -2*Zval/r beyond r=  1.2343

VLOCAL1: 99.0% of the norm of Vloc inside     28.493 Ry
VLOCAL1: 99.9% of the norm of Vloc inside     64.935 Ry
atom: Maximum radius for 4*pi*r*r*local-pseudopot. charge    1.45251
atom: Maximum radius for r*vlocal+2*Zval:    1.21892

KBgen: Kleinman-Bylander projectors: 
GHOST: No ghost state for L =  0
   l= 0   rc=  1.364359   el= -0.467325   Ekb= -2.005361   kbcos= -0.336422
GHOST: No ghost state for L =  1
   l= 1   rc=  1.434438   el=  0.001430   Ekb= -0.501708   kbcos= -0.021697
GHOST: No ghost state for L =  2
   l= 2   rc=  1.470814   el=  0.002365   Ekb= -0.190555   kbcos= -0.002281

KBgen: Total number of  Kleinman-Bylander projectors:    9
atom: -------------------------------------------------------------------------

atom: SANKEY-TYPE ORBITALS:
atom: Selected multiple-zeta basis: split     

SPLIT: Orbitals with angular momentum L= 0

SPLIT: Basis orbitals for state 1s

SPLIT: PAO cut-off radius determined from an
SPLIT: energy shift=  0.020000 Ry

   izeta = 1
                 lambda =    1.000000
                     rc =    4.828263
                 energy =   -0.449375
                kinetic =    0.929372
    potential(screened) =   -1.378747
       potential(ionic) =   -1.915047

   izeta = 2
                 rmatch =    3.854947
              splitnorm =    0.150000
                 energy =   -0.336153
                kinetic =    1.505294
    potential(screened) =   -1.841447
       potential(ionic) =   -2.413582

POLgen: Perturbative polarization orbital with L=  1

POLgen: Polarization orbital for state 1s

   izeta = 1
                     rc =    4.828263
                 energy =    0.706972
                kinetic =    1.396397
    potential(screened) =   -0.689424
       potential(ionic) =   -1.169792
atom: Total number of Sankey-type orbitals:  5

atm_pop: Valence configuration (for local Pseudopot. screening):
 1s( 1.00)                                                            
Vna: chval, zval:    1.00000   1.00000

Vna:  Cut-off radius for the neutral-atom potential:   4.828263

atom: _________________________________________________________________________

prinput: Basis input ----------------------------------------------------------

PAO.BasisType split     

%block ChemicalSpeciesLabel
    1    8 O                       # Species index, atomic number, species label
    2    1 H                       # Species index, atomic number, species label
%endblock ChemicalSpeciesLabel

%block PAO.Basis                 # Define Basis set
O                     2                    # Species label, number of l-shells
 n=2   0   2                         # n, l, Nzeta 
   3.305      2.510   
   1.000      1.000   
 n=2   1   2 P   1                   # n, l, Nzeta, Polarization, NzetaPol
   3.937      2.542   
   1.000      1.000   
H                     1                    # Species label, number of l-shells
 n=1   0   2 P   1                   # n, l, Nzeta, Polarization, NzetaPol
   4.828      3.855   
   1.000      1.000   
%endblock PAO.Basis

prinput: ----------------------------------------------------------------------

coor:   Atomic-coordinates input format  =     Cartesian coordinates
coor:                                          (in Angstroms)

siesta: Atomic coordinates (Bohr) and species
siesta:      0.00000   0.00000   0.00000  1        1
siesta:      1.43052   1.10738   0.00000  2        2
siesta:     -1.43052   1.10738   0.00000  2        3

siesta: Automatic unit cell vectors (Ang):
siesta:    7.286412    0.000000    0.000000
siesta:    0.000000    5.746952    0.000000
siesta:    0.000000    0.000000    5.621012

siesta: System type = molecule  

initatomlists: Number of atoms, orbitals, and projectors:      3    23    34

siesta: ******************** Simulation parameters ****************************
siesta:
siesta: The following are some of the parameters of the simulation.
siesta: A complete list of the parameters used, including default values,
siesta: can be found in file out.fdf
siesta:
redata: Spin configuration                          = none
redata: Number of spin components                   = 1
redata: Time-Reversal Symmetry                      = T
redata: Spin-spiral                                 = F
redata: Long output                                 =   F
redata: Number of Atomic Species                    =        2
redata: Charge density info will appear in .RHO file
redata: Write Mulliken Pop.                         = NO
redata: Matel table size (NRTAB)                    =     1024
redata: Mesh Cutoff                                 =    50.0000 Ry
redata: Net charge of the system                    =     0.0000 |e|
redata: Min. number of SCF Iter                     =        0
redata: Max. number of SCF Iter                     =     1000
redata: SCF convergence failure will abort job
redata: SCF mix quantity                            = Hamiltonian
redata: Mix DM or H after convergence               =   F
redata: Recompute H after scf cycle                 =   F
redata: Mix DM in first SCF step                    =   T
redata: Write Pulay info on disk                    =   F
redata: New DM Mixing Weight                        =     0.2500
redata: New DM Occupancy tolerance                  = 0.000000000001
redata: No kicks to SCF
redata: DM Mixing Weight for Kicks                  =     0.5000
redata: Require Harris convergence for SCF          =   F
redata: Harris energy tolerance for SCF             =     0.000100 eV
redata: Require DM convergence for SCF              =   T
redata: DM tolerance for SCF                        =     0.000100
redata: Require EDM convergence for SCF             =   F
redata: EDM tolerance for SCF                       =     0.001000 eV
redata: Require H convergence for SCF               =   T
redata: Hamiltonian tolerance for SCF               =     0.001000 eV
redata: Require (free) Energy convergence for SCF   =   F
redata: (free) Energy tolerance for SCF             =     0.000100 eV
redata: Using Saved Data (generic)                  =   F
redata: Use continuation files for DM               =   F
redata: Neglect nonoverlap interactions             =   F
redata: Method of Calculation                       = Diagonalization
redata: Electronic Temperature                      =   299.9869 K
redata: Fix the spin of the system                  =   F
redata: Max. number of TDED Iter                    =        1
redata: Number of TDED substeps                     =        3
redata: Dynamics option                             = LUA
mix.SCF: Pulay mixing                            = Pulay
mix.SCF:    Variant                              = stable
mix.SCF:    History steps                        = 2
mix.SCF:    Linear mixing weight                 =     0.250000
mix.SCF:    Mixing weight                        =     0.250000
mix.SCF:    SVD condition                        = 0.1000E-07
redata: ***********************************************************************

%block SCF.Mixers
  Pulay
%endblock SCF.Mixers

%block SCF.Mixer.Pulay
  # Mixing method
  method pulay
  variant stable

  # Mixing options
  weight 0.2500
  weight.linear 0.2500
  history 2
%endblock SCF.Mixer.Pulay

Size of DM history Fstack: 1
Total number of electrons:     8.000000
Total ionic charge:     8.000000

* ProcessorY, Blocksize:    2   3


* Orbital distribution balance (max,min):     3     2


siesta: k-grid: Number of k-points =         1
siesta: k-point is Gamma-only

diag: Algorithm                                     = D&C
diag: Parallel over k                               =   F
diag: Use parallel 2D distribution                  =   T
diag: Parallel block-size                           = 3
diag: Parallel distribution                         =     2 x     4
diag: Used triangular part                          = Lower
diag: Absolute tolerance                            =  0.100E-15
diag: Orthogonalization factor                      =  0.100E-05
diag: Memory factor                                 =  1.0000


ts: **************************************************************
ts: Save H and S matrices                           =    F
ts: Save DM and EDM matrices                        =    F
ts: Fix Hartree potential                           =    F
ts: Only save the overlap matrix S                  =    F
ts: **************************************************************

************************ Begin: TS CHECKS AND WARNINGS ************************
************************ End: TS CHECKS AND WARNINGS **************************


LUA successfully initialized: conv_meshcutoff.lua


LUA: starting mesh-cutoff:   50.000 Ry


                     ====================================
                        LUA coord. step =      0
                     ====================================

outcell: Unit cell vectors (Ang):
        7.286412    0.000000    0.000000
        0.000000    5.746952    0.000000
        0.000000    0.000000    5.621012

outcell: Cell vector modules (Ang)   :    7.286412    5.746952    5.621012
outcell: Cell angles (23,13,12) (deg):     90.0000     90.0000     90.0000
outcell: Cell volume (Ang**3)        :    235.3780
<dSpData1D:S at geom step 0
  <sparsity:sparsity for geom step 0
    nrows_g=23 nrows=3 sparsity=.1304 nnzs=69, refcount: 7>
  <dData1D:(new from dSpData1D) n=69, refcount: 1>
refcount: 1>
new_DM -- step:     1
Initializing Density Matrix...
DM filled with atomic data:
<dSpData2D:DM initialized from atoms
  <sparsity:sparsity for geom step 0
    nrows_g=23 nrows=3 sparsity=.1304 nnzs=69, refcount: 8>
  <dData2D:DM n=69 m=1, refcount: 1>
refcount: 1>
No. of atoms with KB's overlaping orbs in proc 0. Max # of overlaps:       3      23
New grid distribution:   1
           1       1:   16    1:    8    1:    3
           2       1:   16    1:    8    4:    6
           3       1:   16    1:    8    7:    9
           4       1:   16    1:    8   10:   12
           5       1:   16    9:   15    1:    3
           6       1:   16    9:   15    4:    6
           7       1:   16    9:   15    7:    9
           8       1:   16    9:   15   10:   12

InitMesh: MESH =    32 x    30 x    24 =       23040
InitMesh: (bp) =    16 x    15 x    12 =        2880
InitMesh: Mesh cutoff (required, used) =    50.000    50.384 Ry
ExtMesh (bp) on 0 =    40 x    36 x    27 =       38880
New grid distribution:   2
           1       5:   16    5:   15    1:    4
           2       5:   16    1:    4    1:    4
           3       5:   16    1:    4    5:   12
           4       1:    4    1:    4    5:   12
           5       1:    4    5:   15    1:    4
           6       1:    4    1:    4    1:    4
           7       5:   16    5:   15    5:   12
           8       1:    4    5:   15    5:   12
New grid distribution:   3
           1       1:    7    6:   15    1:    4
           2       8:   16    1:    5    1:    5
           3       1:    7    6:   15    5:   12
           4       8:   16    1:    5    6:   12
           5       8:   16    6:   15    1:    4
           6       1:    7    1:    5    6:   12
           7       8:   16    6:   15    5:   12
           8       1:    7    1:    5    1:    5
Setting up quadratic distribution...
ExtMesh (bp) on 0 =    36 x    39 x    28 =       39312
PhiOnMesh: Number of (b)points on node 0 =                  528
PhiOnMesh: nlist on node 0 =                 2325

stepf: Fermi-Dirac step function

siesta: Program's energy decomposition (eV):
siesta: Ebs     =       -86.527796
siesta: Eions   =       815.854478
siesta: Ena     =       175.155695
siesta: Ekin    =       370.751211
siesta: Enl     =       -67.181693
siesta: Eso     =         0.000000
siesta: Eldau   =         0.000000
siesta: DEna    =       -13.606149
siesta: DUscf   =         1.705518
siesta: DUext   =         0.000000
siesta: Enegf   =         0.000000
siesta: Exc     =      -116.213035
siesta: eta*DQ  =         0.000000
siesta: Emadel  =         0.000000
siesta: Emeta   =         0.000000
siesta: Emolmec =         0.000000
siesta: Ekinion =         0.000000
siesta: Eharris =      -467.643426
siesta: Etot    =      -465.242932
siesta: FreeEng =      -465.242932

        iscf     Eharris(eV)        E_KS(eV)     FreeEng(eV)     dDmax    Ef(eV) dHmax(eV)
   scf:    1     -467.643426     -465.242932     -465.242932  1.438864 -4.255291  6.304074
timer: Routine,Calls,Time,% = IterSCF        1       0.016   1.02
   scf:    2     -466.123352     -465.762347     -465.762347  0.046623 -3.205178  2.536058
   scf:    3     -465.848172     -465.834935     -465.834935  0.025062 -2.451503  0.346694
   scf:    4     -465.839978     -465.837604     -465.837604  0.010781 -2.372505  0.255428
   scf:    5     -465.839568     -465.838994     -465.838994  0.023618 -2.153578  0.044621
   scf:    6     -465.839203     -465.839111     -465.839111  0.001580 -2.150940  0.027741
   scf:    7     -465.839165     -465.839140     -465.839140  0.000885 -2.151223  0.014628
   scf:    8     -465.839153     -465.839147     -465.839147  0.000436 -2.153368  0.010016
   scf:    9     -465.839150     -465.839149     -465.839149  0.000473 -2.157437  0.003322
   scf:   10     -465.839149     -465.839149     -465.839149  0.000044 -2.158862  0.001940
   scf:   11     -465.839149     -465.839149     -465.839149  0.000014 -2.159868  0.001317
   scf:   12     -465.839149     -465.839149     -465.839149  0.000015 -2.160052  0.000747

SCF Convergence by DM+H criterion
max |DM_out - DM_in|         :     0.0000151487
max |H_out - H_in|      (eV) :     0.0007470773
SCF cycle converged after 12 iterations

Using DM_out to compute the final energy and forces
No. of atoms with KB's overlaping orbs in proc 0. Max # of overlaps:       3      23

siesta: E_KS(eV) =             -465.8391

siesta: E_KS - E_eggbox =      -465.8391

siesta: Atomic forces (eV/Ang):
----------------------------------------
   Tot   -0.000000    0.055857    0.000000
----------------------------------------
   Max    0.690658
   Res    0.379853    sqrt( Sum f_i^2 / 3N )
----------------------------------------
   Max    0.690658    constrained

Stress-tensor-Voigt (kbar):      -19.92       -3.51       22.43       -0.00        0.00       -0.00
(Free)E + p*V (eV/cell)     -465.7901
Target enthalpy (eV/cell)     -465.8391

                     ====================================
                        LUA coord. step =      1
                     ====================================

outcell: Unit cell vectors (Ang):
        7.286412    0.000000    0.000000
        0.000000    5.746952    0.000000
        0.000000    0.000000    5.621012

outcell: Cell vector modules (Ang)   :    7.286412    5.746952    5.621012
outcell: Cell angles (23,13,12) (deg):     90.0000     90.0000     90.0000
outcell: Cell volume (Ang**3)        :    235.3780
<dSpData1D:S at geom step 1
  <sparsity:sparsity for geom step 1
    nrows_g=23 nrows=3 sparsity=.1304 nnzs=69, refcount: 7>
  <dData1D:(new from dSpData1D) n=69, refcount: 1>
refcount: 1>
new_DM -- step:     2
Re-using DM from previous geometries...
Number of DMs in history: 1
 DM extrapolation coefficients: 
1   1.00000
New DM after history re-use:
<dSpData2D:SpM extrapolated using coords
  <sparsity:sparsity for geom step 1
    nrows_g=23 nrows=3 sparsity=.1304 nnzs=69, refcount: 9>
  <dData2D:(temp array for extrapolation) n=69 m=1, refcount: 1>
refcount: 1>
No. of atoms with KB's overlaping orbs in proc 0. Max # of overlaps:       3      23
New grid distribution:   1
           1       1:   24    1:    9    1:    5
           2       1:   24    1:    9    6:   10
           3       1:   24    1:    9   11:   14
           4       1:   24    1:    9   15:   18
           5       1:   24   10:   18    1:    5
           6       1:   24   10:   18    6:   10
           7       1:   24   10:   18   11:   14
           8       1:   24   10:   18   15:   18

InitMesh: MESH =    48 x    36 x    36 =       62208
InitMesh: (bp) =    24 x    18 x    18 =        7776
InitMesh: Mesh cutoff (required, used) =   100.000   108.450 Ry
ExtMesh (bp) on 0 =    60 x    45 x    41 =      110700
New grid distribution:   2
           1       8:   24    6:   18    1:    6
           2       8:   24    1:    5    7:   18
           3       8:   24    1:    5    1:    6
           4       1:    7    1:    5    7:   18
           5       1:    7    6:   18    1:    6
           6       8:   24    6:   18    7:   18
           7       1:    7    6:   18    7:   18
           8       1:    7    1:    5    1:    6
New grid distribution:   3
           1      11:   24    7:   18    1:    8
           2       1:   10    7:   18    1:    8
           3      11:   24    1:    6    9:   18
           4       1:   10    1:    6    9:   18
           5      11:   24    1:    6    1:    8
           6       1:   10    1:    6    1:    8
           7      11:   24    7:   18    9:   18
           8       1:   10    7:   18    9:   18
Setting up quadratic distribution...
ExtMesh (bp) on 0 =    53 x    49 x    42 =      109074
PhiOnMesh: Number of (b)points on node 0 =                 1326
PhiOnMesh: nlist on node 0 =                 5367

        iscf     Eharris(eV)        E_KS(eV)     FreeEng(eV)     dDmax    Ef(eV) dHmax(eV)
   scf:    1     -465.786198     -465.805928     -465.805928  0.115957 -2.328300  1.004312
   scf:    2     -465.625386     -465.763513     -465.763513  0.041851 -1.720258  1.732701
   scf:    3     -465.846859     -465.825045     -465.825045  0.025583 -2.108779  0.021190
   scf:    4     -465.825067     -465.825056     -465.825056  0.000599 -2.107378  0.011397
   scf:    5     -465.825072     -465.825065     -465.825065  0.000659 -2.107063  0.005797
   scf:    6     -465.825069     -465.825067     -465.825067  0.000462 -2.107387  0.002296
   scf:    7     -465.825067     -465.825067     -465.825067  0.000124 -2.107743  0.000811
   scf:    8     -465.825067     -465.825067     -465.825067  0.000044 -2.108030  0.000467

SCF Convergence by DM+H criterion
max |DM_out - DM_in|         :     0.0000440518
max |H_out - H_in|      (eV) :     0.0004674002
SCF cycle converged after 8 iterations

Using DM_out to compute the final energy and forces
No. of atoms with KB's overlaping orbs in proc 0. Max # of overlaps:       3      23

siesta: E_KS(eV) =             -465.8251

siesta: Atomic forces (eV/Ang):
----------------------------------------
   Tot    0.000000   -0.055896    0.000000
----------------------------------------
   Max    0.716218
   Res    0.425908    sqrt( Sum f_i^2 / 3N )
----------------------------------------
   Max    0.716218    constrained

Stress-tensor-Voigt (kbar):       -6.92       -2.99       -1.00       -0.00        0.00       -0.00
(Free)E + p*V (eV/cell)     -465.2907
Target enthalpy (eV/cell)     -465.8251

                     ====================================
                        LUA coord. step =      2
                     ====================================

outcell: Unit cell vectors (Ang):
        7.286412    0.000000    0.000000
        0.000000    5.746952    0.000000
        0.000000    0.000000    5.621012

outcell: Cell vector modules (Ang)   :    7.286412    5.746952    5.621012
outcell: Cell angles (23,13,12) (deg):     90.0000     90.0000     90.0000
outcell: Cell volume (Ang**3)        :    235.3780
<dSpData1D:S at geom step 2
  <sparsity:sparsity for geom step 2
    nrows_g=23 nrows=3 sparsity=.1304 nnzs=69, refcount: 7>
  <dData1D:(new from dSpData1D) n=69, refcount: 1>
refcount: 1>
new_DM -- step:     3
Re-using DM from previous geometries...
Number of DMs in history: 1
 DM extrapolation coefficients: 
1   1.00000
New DM after history re-use:
<dSpData2D:SpM extrapolated using coords
  <sparsity:sparsity for geom step 2
    nrows_g=23 nrows=3 sparsity=.1304 nnzs=69, refcount: 9>
  <dData2D:(temp array for extrapolation) n=69 m=1, refcount: 1>
refcount: 1>
No. of atoms with KB's overlaping orbs in proc 0. Max # of overlaps:       3      23
New grid distribution:   1
           1       1:   27    1:   12    1:    6
           2       1:   27    1:   12    7:   12
           3       1:   27    1:   12   13:   18
           4       1:   27    1:   12   19:   24
           5       1:   27   13:   24    1:    6
           6       1:   27   13:   24    7:   12
           7       1:   27   13:   24   13:   18
           8       1:   27   13:   24   19:   24

InitMesh: MESH =    54 x    48 x    48 =      124416
InitMesh: (bp) =    27 x    24 x    24 =       15552
InitMesh: Mesh cutoff (required, used) =   150.000   151.796 Ry
ExtMesh (bp) on 0 =    67 x    56 x    50 =      187600
New grid distribution:   2
           1       9:   27    8:   24    1:    8
           2       9:   27    1:    7    1:    8
           3       9:   27    1:    7    9:   24
           4       1:    8    1:    7    9:   24
           5       1:    8    8:   24    1:    8
           6       1:    8    1:    7    1:    8
           7       9:   27    8:   24    9:   24
           8       1:    8    8:   24    9:   24
New grid distribution:   3
           1      12:   27    9:   24    1:   10
           2      12:   27    1:    8    1:   10
           3      12:   27    1:    8   11:   24
           4       1:   11    1:    8   11:   24
           5       1:   11   10:   24    1:   10
           6       1:   11    1:    9    1:   10
           7      12:   27    9:   24   11:   24
           8       1:   11    9:   24   11:   24
Setting up quadratic distribution...
ExtMesh (bp) on 0 =    59 x    61 x    52 =      187148
PhiOnMesh: Number of (b)points on node 0 =                 2584
PhiOnMesh: nlist on node 0 =                 9987

        iscf     Eharris(eV)        E_KS(eV)     FreeEng(eV)     dDmax    Ef(eV) dHmax(eV)
   scf:    1     -465.805788     -465.805827     -465.805827  0.002461 -2.116549  0.034529
   scf:    2     -465.805599     -465.805773     -465.805773  0.001406 -2.137983  0.061368
   scf:    3     -465.805879     -465.805851     -465.805851  0.000890 -2.124223  0.000237
   scf:    4     -465.805851     -465.805851     -465.805851  0.000009 -2.124212  0.000172

SCF Convergence by DM+H criterion
max |DM_out - DM_in|         :     0.0000091222
max |H_out - H_in|      (eV) :     0.0001720757
SCF cycle converged after 4 iterations

Using DM_out to compute the final energy and forces
No. of atoms with KB's overlaping orbs in proc 0. Max # of overlaps:       3      23

siesta: E_KS(eV) =             -465.8059

siesta: Atomic forces (eV/Ang):
----------------------------------------
   Tot    0.000000   -0.004271    0.000000
----------------------------------------
   Max    0.697930
   Res    0.420972    sqrt( Sum f_i^2 / 3N )
----------------------------------------
   Max    0.697930    constrained

Stress-tensor-Voigt (kbar):       -6.86       -2.49       -0.14       -0.00        0.00        0.00
(Free)E + p*V (eV/cell)     -465.3407
Target enthalpy (eV/cell)     -465.8059

                     ====================================
                        LUA coord. step =      3
                     ====================================

outcell: Unit cell vectors (Ang):
        7.286412    0.000000    0.000000
        0.000000    5.746952    0.000000
        0.000000    0.000000    5.621012

outcell: Cell vector modules (Ang)   :    7.286412    5.746952    5.621012
outcell: Cell angles (23,13,12) (deg):     90.0000     90.0000     90.0000
outcell: Cell volume (Ang**3)        :    235.3780
<dSpData1D:S at geom step 3
  <sparsity:sparsity for geom step 3
    nrows_g=23 nrows=3 sparsity=.1304 nnzs=69, refcount: 7>
  <dData1D:(new from dSpData1D) n=69, refcount: 1>
refcount: 1>
new_DM -- step:     4
Re-using DM from previous geometries...
Number of DMs in history: 1
 DM extrapolation coefficients: 
1   1.00000
New DM after history re-use:
<dSpData2D:SpM extrapolated using coords
  <sparsity:sparsity for geom step 3
    nrows_g=23 nrows=3 sparsity=.1304 nnzs=69, refcount: 9>
  <dData2D:(temp array for extrapolation) n=69 m=1, refcount: 1>
refcount: 1>
No. of atoms with KB's overlaping orbs in proc 0. Max # of overlaps:       3      23
New grid distribution:   1
           1       1:   32    1:   13    1:    6
           2       1:   32    1:   13    7:   12
           3       1:   32    1:   13   13:   18
           4       1:   32    1:   13   19:   24
           5       1:   32   14:   25    1:    6
           6       1:   32   14:   25    7:   12
           7       1:   32   14:   25   13:   18
           8       1:   32   14:   25   19:   24

InitMesh: MESH =    64 x    50 x    48 =      153600
InitMesh: (bp) =    32 x    25 x    24 =       19200
InitMesh: Mesh cutoff (required, used) =   200.000   201.537 Ry
ExtMesh (bp) on 0 =    80 x    61 x    50 =      244000
New grid distribution:   2
           1      10:   32    8:   25    1:    8
           2      10:   32    1:    7    1:    9
           3      10:   32    1:    7   10:   24
           4       1:    9    1:    7   10:   24
           5       1:    9    8:   25    1:    8
           6       1:    9    1:    7    1:    9
           7      10:   32    8:   25    9:   24
           8       1:    9    8:   25    9:   24
New grid distribution:   3
           1      15:   32    1:    8    1:   10
           2       1:   14    1:    9   12:   24
           3       1:   14   10:   25   10:   24
           4      15:   32    1:    8   11:   24
           5      15:   32    9:   25    1:    9
           6       1:   14   10:   25    1:    9
           7      15:   32    9:   25   10:   24
           8       1:   14    1:    9    1:   11
Setting up quadratic distribution...
ExtMesh (bp) on 0 =    71 x    66 x    52 =      243672
PhiOnMesh: Number of (b)points on node 0 =                 3312
PhiOnMesh: nlist on node 0 =                12745

        iscf     Eharris(eV)        E_KS(eV)     FreeEng(eV)     dDmax    Ef(eV) dHmax(eV)
   scf:    1     -465.805272     -465.805272     -465.805272  0.000167 -2.125796  0.001300
   scf:    2     -465.805271     -465.805272     -465.805272  0.000048 -2.126482  0.002480
   scf:    3     -465.805272     -465.805272     -465.805272  0.000032 -2.126013  0.000090

SCF Convergence by DM+H criterion
max |DM_out - DM_in|         :     0.0000319166
max |H_out - H_in|      (eV) :     0.0000896495
SCF cycle converged after 3 iterations

Using DM_out to compute the final energy and forces
No. of atoms with KB's overlaping orbs in proc 0. Max # of overlaps:       3      23

siesta: E_KS(eV) =             -465.8053

siesta: Atomic forces (eV/Ang):
----------------------------------------
   Tot    0.000000    0.001833    0.000000
----------------------------------------
   Max    0.695245
   Res    0.422019    sqrt( Sum f_i^2 / 3N )
----------------------------------------
   Max    0.695245    constrained

Stress-tensor-Voigt (kbar):       -6.86       -2.47       -0.15       -0.00        0.00        0.00
(Free)E + p*V (eV/cell)     -465.3412
Target enthalpy (eV/cell)     -465.8053

                     ====================================
                        LUA coord. step =      4
                     ====================================

outcell: Unit cell vectors (Ang):
        7.286412    0.000000    0.000000
        0.000000    5.746952    0.000000
        0.000000    0.000000    5.621012

outcell: Cell vector modules (Ang)   :    7.286412    5.746952    5.621012
outcell: Cell angles (23,13,12) (deg):     90.0000     90.0000     90.0000
outcell: Cell volume (Ang**3)        :    235.3780
<dSpData1D:S at geom step 4
  <sparsity:sparsity for geom step 4
    nrows_g=23 nrows=3 sparsity=.1304 nnzs=69, refcount: 7>
  <dData1D:(new from dSpData1D) n=69, refcount: 1>
refcount: 1>
new_DM -- step:     5
Re-using DM from previous geometries...
Number of DMs in history: 1
 DM extrapolation coefficients: 
1   1.00000
New DM after history re-use:
<dSpData2D:SpM extrapolated using coords
  <sparsity:sparsity for geom step 4
    nrows_g=23 nrows=3 sparsity=.1304 nnzs=69, refcount: 9>
  <dData2D:(temp array for extrapolation) n=69 m=1, refcount: 1>
refcount: 1>
No. of atoms with KB's overlaping orbs in proc 0. Max # of overlaps:       3      23
New grid distribution:   1
           1       1:   36    1:   15    1:    7
           2       1:   36    1:   15    8:   14
           3       1:   36    1:   15   15:   21
           4       1:   36    1:   15   22:   27
           5       1:   36   16:   30    1:    7
           6       1:   36   16:   30    8:   14
           7       1:   36   16:   30   15:   21
           8       1:   36   16:   30   22:   27

InitMesh: MESH =    72 x    60 x    54 =      233280
InitMesh: (bp) =    36 x    30 x    27 =       29160
InitMesh: Mesh cutoff (required, used) =   250.000   255.070 Ry
ExtMesh (bp) on 0 =    88 x    71 x    59 =      368632
New grid distribution:   2
           1      12:   36   10:   30    1:    9
           2      12:   36    1:    9    1:   10
           3      12:   36    1:    9   11:   27
           4       1:   11    1:    9   11:   27
           5       1:   11   10:   30    1:    9
           6       1:   11    1:    9    1:   10
           7      12:   36   10:   30   10:   27
           8       1:   11   10:   30   10:   27
New grid distribution:   3
           1      16:   36    1:   10    1:   12
           2       1:   15    1:   10   13:   27
           3       1:   15   11:   30   11:   27
           4      16:   36    1:   10   13:   27
           5      16:   36   11:   30    1:   10
           6       1:   15   11:   30    1:   10
           7      16:   36   11:   30   11:   27
           8       1:   15    1:   10    1:   12
Setting up quadratic distribution...
ExtMesh (bp) on 0 =    77 x    77 x    61 =      361669
PhiOnMesh: Number of (b)points on node 0 =                 4725
PhiOnMesh: nlist on node 0 =                17810

        iscf     Eharris(eV)        E_KS(eV)     FreeEng(eV)     dDmax    Ef(eV) dHmax(eV)
   scf:    1     -465.804808     -465.804808     -465.804808  0.000087 -2.126831  0.000846

SCF Convergence by DM+H criterion
max |DM_out - DM_in|         :     0.0000865086
max |H_out - H_in|      (eV) :     0.0008456534
SCF cycle converged after 1 iterations

Using DM_out to compute the final energy and forces
No. of atoms with KB's overlaping orbs in proc 0. Max # of overlaps:       3      23

siesta: E_KS(eV) =             -465.8048

siesta: Atomic forces (eV/Ang):
----------------------------------------
   Tot    0.000000   -0.000725    0.000000
----------------------------------------
   Max    0.694131
   Res    0.421603    sqrt( Sum f_i^2 / 3N )
----------------------------------------
   Max    0.694131    constrained

Stress-tensor-Voigt (kbar):       -6.90       -2.48       -0.13       -0.00        0.00        0.00
(Free)E + p*V (eV/cell)     -465.3393
Target enthalpy (eV/cell)     -465.8048

                     ====================================
                        LUA coord. step =      5
                     ====================================

outcell: Unit cell vectors (Ang):
        7.286412    0.000000    0.000000
        0.000000    5.746952    0.000000
        0.000000    0.000000    5.621012

outcell: Cell vector modules (Ang)   :    7.286412    5.746952    5.621012
outcell: Cell angles (23,13,12) (deg):     90.0000     90.0000     90.0000
outcell: Cell volume (Ang**3)        :    235.3780
<dSpData1D:S at geom step 5
  <sparsity:sparsity for geom step 5
    nrows_g=23 nrows=3 sparsity=.1304 nnzs=69, refcount: 7>
  <dData1D:(new from dSpData1D) n=69, refcount: 1>
refcount: 1>
new_DM -- step:     6
Re-using DM from previous geometries...
Number of DMs in history: 1
 DM extrapolation coefficients: 
1   1.00000
New DM after history re-use:
<dSpData2D:SpM extrapolated using coords
  <sparsity:sparsity for geom step 5
    nrows_g=23 nrows=3 sparsity=.1304 nnzs=69, refcount: 9>
  <dData2D:(temp array for extrapolation) n=69 m=1, refcount: 1>
refcount: 1>
No. of atoms with KB's overlaping orbs in proc 0. Max # of overlaps:       3      23
New grid distribution:   1
           1       1:   40    1:   15    1:    8
           2       1:   40    1:   15    9:   16
           3       1:   40    1:   15   17:   23
           4       1:   40    1:   15   24:   30
           5       1:   40   16:   30    1:    8
           6       1:   40   16:   30    9:   16
           7       1:   40   16:   30   17:   23
           8       1:   40   16:   30   24:   30

InitMesh: MESH =    80 x    60 x    60 =      288000
InitMesh: (bp) =    40 x    30 x    30 =       36000
InitMesh: Mesh cutoff (required, used) =   300.000   301.251 Ry
ExtMesh (bp) on 0 =   100 x    71 x    64 =      454400
New grid distribution:   2
           1      13:   40   10:   30    1:   11
           2      13:   40    1:    9    1:   11
           3      13:   40    1:    9   12:   30
           4       1:   12    1:    9   12:   30
           5       1:   12   10:   30    1:   11
           6       1:   12    1:    9    1:   11
           7      13:   40   10:   30   12:   30
           8       1:   12   10:   30   12:   30
New grid distribution:   3
           1      18:   40   11:   30    1:   13
           2       1:   17   11:   30    1:   13
           3      18:   40    1:   10   14:   30
           4       1:   17    1:   10   14:   30
           5      18:   40    1:   10    1:   13
           6       1:   17    1:   10    1:   13
           7      18:   40   11:   30   14:   30
           8       1:   17   11:   30   14:   30
Setting up quadratic distribution...
ExtMesh (bp) on 0 =    88 x    77 x    67 =      453992
PhiOnMesh: Number of (b)points on node 0 =                 6468
PhiOnMesh: nlist on node 0 =                22605

        iscf     Eharris(eV)        E_KS(eV)     FreeEng(eV)     dDmax    Ef(eV) dHmax(eV)
   scf:    1     -465.804620     -465.804621     -465.804621  0.000024 -2.127551  0.001278
   scf:    2     -465.804620     -465.804620     -465.804620  0.000047 -2.126736  0.002284
   scf:    3     -465.804621     -465.804621     -465.804621  0.000030 -2.127256  0.000008

SCF Convergence by DM+H criterion
max |DM_out - DM_in|         :     0.0000302375
max |H_out - H_in|      (eV) :     0.0000078294
SCF cycle converged after 3 iterations

Using DM_out to compute the final energy and forces
No. of atoms with KB's overlaping orbs in proc 0. Max # of overlaps:       3      23

siesta: E_KS(eV) =             -465.8046

siesta: Atomic forces (eV/Ang):
----------------------------------------
   Tot   -0.000000   -0.000159    0.000000
----------------------------------------
   Max    0.693287
   Res    0.421983    sqrt( Sum f_i^2 / 3N )
----------------------------------------
   Max    0.693287    constrained

Stress-tensor-Voigt (kbar):       -6.89       -2.47       -0.11       -0.00        0.00       -0.00
(Free)E + p*V (eV/cell)     -465.3409
Target enthalpy (eV/cell)     -465.8046

                     ====================================
                        LUA coord. step =      6
                     ====================================

outcell: Unit cell vectors (Ang):
        7.286412    0.000000    0.000000
        0.000000    5.746952    0.000000
        0.000000    0.000000    5.621012

outcell: Cell vector modules (Ang)   :    7.286412    5.746952    5.621012
outcell: Cell angles (23,13,12) (deg):     90.0000     90.0000     90.0000
outcell: Cell volume (Ang**3)        :    235.3780
<dSpData1D:S at geom step 6
  <sparsity:sparsity for geom step 6
    nrows_g=23 nrows=3 sparsity=.1304 nnzs=69, refcount: 7>
  <dData1D:(new from dSpData1D) n=69, refcount: 1>
refcount: 1>
new_DM -- step:     7
Re-using DM from previous geometries...
Number of DMs in history: 1
 DM extrapolation coefficients: 
1   1.00000
New DM after history re-use:
<dSpData2D:SpM extrapolated using coords
  <sparsity:sparsity for geom step 6
    nrows_g=23 nrows=3 sparsity=.1304 nnzs=69, refcount: 9>
  <dData2D:(temp array for extrapolation) n=69 m=1, refcount: 1>
refcount: 1>
No. of atoms with KB's overlaping orbs in proc 0. Max # of overlaps:       3      23
New grid distribution:   1
           1       1:   45    1:   18    1:    8
           2       1:   45    1:   18    9:   16
           3       1:   45    1:   18   17:   24
           4       1:   45    1:   18   25:   32
           5       1:   45   19:   36    1:    8
           6       1:   45   19:   36    9:   16
           7       1:   45   19:   36   17:   24
           8       1:   45   19:   36   25:   32

InitMesh: MESH =    90 x    72 x    64 =      414720
InitMesh: (bp) =    45 x    36 x    32 =       51840
InitMesh: Mesh cutoff (required, used) =   350.000   358.288 Ry
ExtMesh (bp) on 0 =   109 x    86 x    68 =      637432
New grid distribution:   2
           1      15:   45   11:   36    1:   11
           2      15:   45    1:   10    1:   12
           3      15:   45    1:   10   13:   32
           4       1:   14    1:   11   13:   32
           5       1:   14   12:   36    1:   11
           6       1:   14    1:   11    1:   12
           7      15:   45   11:   36   12:   32
           8       1:   14   12:   36   12:   32
New grid distribution:   3
           1      20:   45    1:   12    1:   14
           2       1:   19    1:   12   15:   32
           3       1:   19   13:   36   13:   32
           4      20:   45    1:   12   15:   32
           5      20:   45   13:   36    1:   12
           6       1:   19   13:   36    1:   12
           7      20:   45   13:   36   13:   32
           8       1:   19    1:   12    1:   14
Setting up quadratic distribution...
ExtMesh (bp) on 0 =    95 x    94 x    71 =      634030
PhiOnMesh: Number of (b)points on node 0 =                 8866
PhiOnMesh: nlist on node 0 =                32882

        iscf     Eharris(eV)        E_KS(eV)     FreeEng(eV)     dDmax    Ef(eV) dHmax(eV)
   scf:    1     -465.804476     -465.804476     -465.804476  0.000056 -2.127297  0.000189

SCF Convergence by DM+H criterion
max |DM_out - DM_in|         :     0.0000558278
max |H_out - H_in|      (eV) :     0.0001894621
SCF cycle converged after 1 iterations

Using DM_out to compute the final energy and forces
No. of atoms with KB's overlaping orbs in proc 0. Max # of overlaps:       3      23

siesta: E_KS(eV) =             -465.8045

siesta: Atomic forces (eV/Ang):
----------------------------------------
   Tot   -0.000000   -0.000008    0.000000
----------------------------------------
   Max    0.691275
   Res    0.421661    sqrt( Sum f_i^2 / 3N )
----------------------------------------
   Max    0.691275    constrained

Stress-tensor-Voigt (kbar):       -6.88       -2.45       -0.11       -0.00        0.00        0.00
(Free)E + p*V (eV/cell)     -465.3420
Target enthalpy (eV/cell)     -465.8045

                     ====================================
                        LUA coord. step =      7
                     ====================================

outcell: Unit cell vectors (Ang):
        7.286412    0.000000    0.000000
        0.000000    5.746952    0.000000
        0.000000    0.000000    5.621012

outcell: Cell vector modules (Ang)   :    7.286412    5.746952    5.621012
outcell: Cell angles (23,13,12) (deg):     90.0000     90.0000     90.0000
outcell: Cell volume (Ang**3)        :    235.3780
<dSpData1D:S at geom step 7
  <sparsity:sparsity for geom step 7
    nrows_g=23 nrows=3 sparsity=.1304 nnzs=69, refcount: 7>
  <dData1D:(new from dSpData1D) n=69, refcount: 1>
refcount: 1>
new_DM -- step:     8
Re-using DM from previous geometries...
Number of DMs in history: 1
 DM extrapolation coefficients: 
1   1.00000
New DM after history re-use:
<dSpData2D:SpM extrapolated using coords
  <sparsity:sparsity for geom step 7
    nrows_g=23 nrows=3 sparsity=.1304 nnzs=69, refcount: 9>
  <dData2D:(temp array for extrapolation) n=69 m=1, refcount: 1>
refcount: 1>
No. of atoms with KB's overlaping orbs in proc 0. Max # of overlaps:       3      23
New grid distribution:   1
           1       1:   45    1:   18    1:    9
           2       1:   45    1:   18   10:   18
           3       1:   45    1:   18   19:   27
           4       1:   45    1:   18   28:   36
           5       1:   45   19:   36    1:    9
           6       1:   45   19:   36   10:   18
           7       1:   45   19:   36   19:   27
           8       1:   45   19:   36   28:   36

InitMesh: MESH =    90 x    72 x    72 =      466560
InitMesh: (bp) =    45 x    36 x    36 =       58320
InitMesh: Mesh cutoff (required, used) =   400.000   421.657 Ry
ExtMesh (bp) on 0 =   109 x    86 x    77 =      721798
New grid distribution:   2
           1      15:   45   11:   36    1:   13
           2      15:   45    1:   10    1:   13
           3      15:   45    1:   10   14:   36
           4       1:   14    1:   10   14:   36
           5       1:   14   12:   36    1:   13
           6       1:   14    1:   11    1:   13
           7      15:   45   11:   36   14:   36
           8       1:   14   11:   36   14:   36
New grid distribution:   3
           1       1:   19   14:   36    1:   15
           2      20:   45    1:   12    1:   15
           3       1:   19   13:   36   16:   36
           4      20:   45    1:   12   16:   36
           5      20:   45   13:   36    1:   15
           6       1:   19    1:   12   16:   36
           7      20:   45   13:   36   16:   36
           8       1:   19    1:   13    1:   15
Setting up quadratic distribution...
ExtMesh (bp) on 0 =    95 x    94 x    81 =      723330
PhiOnMesh: Number of (b)points on node 0 =                10478
PhiOnMesh: nlist on node 0 =                37347

        iscf     Eharris(eV)        E_KS(eV)     FreeEng(eV)     dDmax    Ef(eV) dHmax(eV)
   scf:    1     -465.804442     -465.804442     -465.804442  0.000013 -2.127439  0.000252

SCF Convergence by DM+H criterion
max |DM_out - DM_in|         :     0.0000134170
max |H_out - H_in|      (eV) :     0.0002518133
SCF cycle converged after 1 iterations

Using DM_out to compute the final energy and forces
No. of atoms with KB's overlaping orbs in proc 0. Max # of overlaps:       3      23

siesta: E_KS(eV) =             -465.8044

siesta: Atomic forces (eV/Ang):
----------------------------------------
   Tot   -0.000000   -0.000010    0.000000
----------------------------------------
   Max    0.691523
   Res    0.421747    sqrt( Sum f_i^2 / 3N )
----------------------------------------
   Max    0.691523    constrained

Stress-tensor-Voigt (kbar):       -6.88       -2.46       -0.11       -0.00        0.00        0.00
(Free)E + p*V (eV/cell)     -465.3420
Target enthalpy (eV/cell)     -465.8044

                     ====================================
                        LUA coord. step =      8
                     ====================================

outcell: Unit cell vectors (Ang):
        7.286412    0.000000    0.000000
        0.000000    5.746952    0.000000
        0.000000    0.000000    5.621012

outcell: Cell vector modules (Ang)   :    7.286412    5.746952    5.621012
outcell: Cell angles (23,13,12) (deg):     90.0000     90.0000     90.0000
outcell: Cell volume (Ang**3)        :    235.3780
<dSpData1D:S at geom step 8
  <sparsity:sparsity for geom step 8
    nrows_g=23 nrows=3 sparsity=.1304 nnzs=69, refcount: 7>
  <dData1D:(new from dSpData1D) n=69, refcount: 1>
refcount: 1>
new_DM -- step:     9
Re-using DM from previous geometries...
Number of DMs in history: 1
 DM extrapolation coefficients: 
1   1.00000
New DM after history re-use:
<dSpData2D:SpM extrapolated using coords
  <sparsity:sparsity for geom step 8
    nrows_g=23 nrows=3 sparsity=.1304 nnzs=69, refcount: 9>
  <dData2D:(temp array for extrapolation) n=69 m=1, refcount: 1>
refcount: 1>
No. of atoms with KB's overlaping orbs in proc 0. Max # of overlaps:       3      23
New grid distribution:   1
           1       1:   48    1:   20    1:    9
           2       1:   48    1:   20   10:   18
           3       1:   48    1:   20   19:   27
           4       1:   48    1:   20   28:   36
           5       1:   48   21:   40    1:    9
           6       1:   48   21:   40   10:   18
           7       1:   48   21:   40   19:   27
           8       1:   48   21:   40   28:   36

InitMesh: MESH =    96 x    80 x    72 =      552960
InitMesh: (bp) =    48 x    40 x    36 =       69120
InitMesh: Mesh cutoff (required, used) =   450.000   453.459 Ry
ExtMesh (bp) on 0 =   116 x    92 x    77 =      821744
New grid distribution:   2
           1      16:   48   13:   40    1:   12
           2      16:   48    1:   12    1:   13
           3      16:   48    1:   12   14:   36
           4       1:   15    1:   12   14:   36
           5       1:   15   13:   40    1:   12
           6       1:   15    1:   12    1:   13
           7      16:   48   13:   40   13:   36
           8       1:   15   13:   40   13:   36
New grid distribution:   3
           1      21:   48    1:   13    1:   16
           2       1:   20    1:   14   17:   36
           3       1:   20   15:   40   15:   36
           4      21:   48    1:   13   17:   36
           5      21:   48   14:   40    1:   14
           6       1:   20   15:   40    1:   14
           7      21:   48   14:   40   15:   36
           8       1:   20    1:   14    1:   16
Setting up quadratic distribution...
ExtMesh (bp) on 0 =   101 x   100 x    80 =      808000
PhiOnMesh: Number of (b)points on node 0 =                11088
PhiOnMesh: nlist on node 0 =                40849

        iscf     Eharris(eV)        E_KS(eV)     FreeEng(eV)     dDmax    Ef(eV) dHmax(eV)
   scf:    1     -465.804407     -465.804407     -465.804407  0.000029 -2.127274  0.000460

SCF Convergence by DM+H criterion
max |DM_out - DM_in|         :     0.0000288655
max |H_out - H_in|      (eV) :     0.0004598117
SCF cycle converged after 1 iterations

Using DM_out to compute the final energy and forces
No. of atoms with KB's overlaping orbs in proc 0. Max # of overlaps:       3      23

siesta: E_KS(eV) =             -465.8044

siesta: Atomic forces (eV/Ang):
----------------------------------------
   Tot   -0.000000    0.001348    0.000000
----------------------------------------
   Max    0.691838
   Res    0.422651    sqrt( Sum f_i^2 / 3N )
----------------------------------------
   Max    0.691838    constrained

Stress-tensor-Voigt (kbar):       -6.88       -2.46       -0.11       -0.00        0.00       -0.00
(Free)E + p*V (eV/cell)     -465.3415
Target enthalpy (eV/cell)     -465.8044

                     ====================================
                        LUA coord. step =      9
                     ====================================

outcell: Unit cell vectors (Ang):
        7.286412    0.000000    0.000000
        0.000000    5.746952    0.000000
        0.000000    0.000000    5.621012

outcell: Cell vector modules (Ang)   :    7.286412    5.746952    5.621012
outcell: Cell angles (23,13,12) (deg):     90.0000     90.0000     90.0000
outcell: Cell volume (Ang**3)        :    235.3780
<dSpData1D:S at geom step 9
  <sparsity:sparsity for geom step 9
    nrows_g=23 nrows=3 sparsity=.1304 nnzs=69, refcount: 7>
  <dData1D:(new from dSpData1D) n=69, refcount: 1>
refcount: 1>
new_DM -- step:    10
Re-using DM from previous geometries...
Number of DMs in history: 1
 DM extrapolation coefficients: 
1   1.00000
New DM after history re-use:
<dSpData2D:SpM extrapolated using coords
  <sparsity:sparsity for geom step 9
    nrows_g=23 nrows=3 sparsity=.1304 nnzs=69, refcount: 9>
  <dData2D:(temp array for extrapolation) n=69 m=1, refcount: 1>
refcount: 1>
No. of atoms with KB's overlaping orbs in proc 0. Max # of overlaps:       3      23
New grid distribution:   1
           1       1:   50    1:   20    1:   10
           2       1:   50    1:   20   11:   20
           3       1:   50    1:   20   21:   30
           4       1:   50    1:   20   31:   40
           5       1:   50   21:   40    1:   10
           6       1:   50   21:   40   11:   20
           7       1:   50   21:   40   21:   30
           8       1:   50   21:   40   31:   40

InitMesh: MESH =   100 x    80 x    80 =      640000
InitMesh: (bp) =    50 x    40 x    40 =       80000
InitMesh: Mesh cutoff (required, used) =   500.000   520.564 Ry
ExtMesh (bp) on 0 =   122 x    92 x    86 =      965264
New grid distribution:   2
           1      17:   50   13:   40    1:   14
           2      17:   50    1:   12    1:   14
           3      17:   50    1:   11   15:   40
           4       1:   16    1:   11   15:   40
           5       1:   16   13:   40    1:   14
           6       1:   16    1:   12    1:   14
           7      17:   50   12:   40   15:   40
           8       1:   16   12:   40   15:   40
New grid distribution:   3
           1      22:   50   14:   40    1:   17
           2       1:   21   15:   40    1:   17
           3      22:   50    1:   13   18:   40
           4       1:   21    1:   13   18:   40
           5      22:   50    1:   13    1:   17
           6       1:   21    1:   14    1:   17
           7      22:   50   14:   40   18:   40
           8       1:   21   14:   40   18:   40
Setting up quadratic distribution...
ExtMesh (bp) on 0 =   106 x   100 x    90 =      954000
PhiOnMesh: Number of (b)points on node 0 =                13328
PhiOnMesh: nlist on node 0 =                47541

        iscf     Eharris(eV)        E_KS(eV)     FreeEng(eV)     dDmax    Ef(eV) dHmax(eV)
   scf:    1     -465.804392     -465.804392     -465.804392  0.000019 -2.127594  0.000775

SCF Convergence by DM+H criterion
max |DM_out - DM_in|         :     0.0000191113
max |H_out - H_in|      (eV) :     0.0007747208
SCF cycle converged after 1 iterations

Using DM_out to compute the final energy and forces
No. of atoms with KB's overlaping orbs in proc 0. Max # of overlaps:       3      23

siesta: E_KS(eV) =             -465.8044

siesta: Atomic forces (eV/Ang):
----------------------------------------
   Tot   -0.000000    0.000003    0.000000
----------------------------------------
   Max    0.692889
   Res    0.422171    sqrt( Sum f_i^2 / 3N )
----------------------------------------
   Max    0.692889    constrained

Stress-tensor-Voigt (kbar):       -6.89       -2.47       -0.11       -0.00        0.00        0.00
(Free)E + p*V (eV/cell)     -465.3410
Target enthalpy (eV/cell)     -465.8044

                     ====================================
                        LUA coord. step =     10
                     ====================================

outcell: Unit cell vectors (Ang):
        7.286412    0.000000    0.000000
        0.000000    5.746952    0.000000
        0.000000    0.000000    5.621012

outcell: Cell vector modules (Ang)   :    7.286412    5.746952    5.621012
outcell: Cell angles (23,13,12) (deg):     90.0000     90.0000     90.0000
outcell: Cell volume (Ang**3)        :    235.3780
<dSpData1D:S at geom step 10
  <sparsity:sparsity for geom step 10
    nrows_g=23 nrows=3 sparsity=.1304 nnzs=69, refcount: 7>
  <dData1D:(new from dSpData1D) n=69, refcount: 1>
refcount: 1>
new_DM -- step:    11
Re-using DM from previous geometries...
Number of DMs in history: 1
 DM extrapolation coefficients: 
1   1.00000
New DM after history re-use:
<dSpData2D:SpM extrapolated using coords
  <sparsity:sparsity for geom step 10
    nrows_g=23 nrows=3 sparsity=.1304 nnzs=69, refcount: 9>
  <dData2D:(temp array for extrapolation) n=69 m=1, refcount: 1>
refcount: 1>
No. of atoms with KB's overlaping orbs in proc 0. Max # of overlaps:       3      23
New grid distribution:   1
           1       1:   54    1:   23    1:   10
           2       1:   54    1:   23   11:   20
           3       1:   54    1:   23   21:   30
           4       1:   54    1:   23   31:   40
           5       1:   54   24:   45    1:   10
           6       1:   54   24:   45   11:   20
           7       1:   54   24:   45   21:   30
           8       1:   54   24:   45   31:   40

InitMesh: MESH =   108 x    90 x    80 =      777600
InitMesh: (bp) =    54 x    45 x    40 =       97200
InitMesh: Mesh cutoff (required, used) =   550.000   559.825 Ry
ExtMesh (bp) on 0 =   130 x   107 x    86 =     1196260
New grid distribution:   2
           1      18:   54   14:   45    1:   14
           2      18:   54    1:   13    1:   15
           3      18:   54    1:   13   16:   40
           4       1:   17    1:   13   16:   40
           5       1:   17   14:   45    1:   14
           6       1:   17    1:   13    1:   15
           7      18:   54   14:   45   15:   40
           8       1:   17   14:   45   15:   40
New grid distribution:   3
           1       1:   23   16:   45    1:   16
           2       1:   23    1:   15   19:   40
           3       1:   23   16:   45   17:   40
           4      24:   54    1:   15   19:   40
           5      24:   54   16:   45    1:   16
           6      24:   54    1:   15    1:   18
           7      24:   54   16:   45   17:   40
           8       1:   23    1:   15    1:   18
Setting up quadratic distribution...
ExtMesh (bp) on 0 =   113 x   116 x    90 =     1179720
PhiOnMesh: Number of (b)points on node 0 =                16576
PhiOnMesh: nlist on node 0 =                59177

        iscf     Eharris(eV)        E_KS(eV)     FreeEng(eV)     dDmax    Ef(eV) dHmax(eV)
   scf:    1     -465.804415     -465.804415     -465.804415  0.000028 -2.127097  0.001379
   scf:    2     -465.804415     -465.804415     -465.804415  0.000053 -2.127958  0.002454
   scf:    3     -465.804415     -465.804415     -465.804415  0.000034 -2.127406  0.000003

SCF Convergence by DM+H criterion
max |DM_out - DM_in|         :     0.0000337723
max |H_out - H_in|      (eV) :     0.0000030892
SCF cycle converged after 3 iterations

Using DM_out to compute the final energy and forces
No. of atoms with KB's overlaping orbs in proc 0. Max # of overlaps:       3      23

siesta: E_KS(eV) =             -465.8044

siesta: Atomic forces (eV/Ang):
----------------------------------------
   Tot   -0.000000   -0.000749   -0.000000
----------------------------------------
   Max    0.693043
   Res    0.422330    sqrt( Sum f_i^2 / 3N )
----------------------------------------
   Max    0.693043    constrained

Stress-tensor-Voigt (kbar):       -6.89       -2.47       -0.11       -0.00        0.00        0.00
(Free)E + p*V (eV/cell)     -465.3409
Target enthalpy (eV/cell)     -465.8044

                     ====================================
                        LUA coord. step =     11
                     ====================================

outcell: Unit cell vectors (Ang):
        7.286412    0.000000    0.000000
        0.000000    5.746952    0.000000
        0.000000    0.000000    5.621012

outcell: Cell vector modules (Ang)   :    7.286412    5.746952    5.621012
outcell: Cell angles (23,13,12) (deg):     90.0000     90.0000     90.0000
outcell: Cell volume (Ang**3)        :    235.3780
<dSpData1D:S at geom step 11
  <sparsity:sparsity for geom step 11
    nrows_g=23 nrows=3 sparsity=.1304 nnzs=69, refcount: 7>
  <dData1D:(new from dSpData1D) n=69, refcount: 1>
refcount: 1>
new_DM -- step:    12
Re-using DM from previous geometries...
Number of DMs in history: 1
 DM extrapolation coefficients: 
1   1.00000
New DM after history re-use:
<dSpData2D:SpM extrapolated using coords
  <sparsity:sparsity for geom step 11
    nrows_g=23 nrows=3 sparsity=.1304 nnzs=69, refcount: 9>
  <dData2D:(temp array for extrapolation) n=69 m=1, refcount: 1>
refcount: 1>
No. of atoms with KB's overlaping orbs in proc 0. Max # of overlaps:       3      23
New grid distribution:   1
           1       1:   54    1:   23    1:   12
           2       1:   54    1:   23   13:   23
           3       1:   54    1:   23   24:   34
           4       1:   54    1:   23   35:   45
           5       1:   54   24:   45    1:   12
           6       1:   54   24:   45   13:   23
           7       1:   54   24:   45   24:   34
           8       1:   54   24:   45   35:   45

InitMesh: MESH =   108 x    90 x    90 =      874800
InitMesh: (bp) =    54 x    45 x    45 =      109350
InitMesh: Mesh cutoff (required, used) =   600.000   607.186 Ry
ExtMesh (bp) on 0 =   130 x   107 x    96 =     1335360
New grid distribution:   2
           1      18:   54   14:   45    1:   16
           2      18:   54    1:   13    1:   16
           3      18:   54    1:   13   17:   45
           4       1:   17    1:   13   17:   45
           5       1:   17   14:   45    1:   16
           6       1:   17    1:   13    1:   16
           7      18:   54   14:   45   17:   45
           8       1:   17   14:   45   17:   45
New grid distribution:   3
           1       1:   23   17:   45    1:   19
           2      24:   54    1:   15    1:   19
           3       1:   23   16:   45   20:   45
           4      24:   54    1:   15   20:   45
           5      24:   54   16:   45    1:   19
           6       1:   23    1:   15   20:   45
           7      24:   54   16:   45   20:   45
           8       1:   23    1:   16    1:   19
Setting up quadratic distribution...
ExtMesh (bp) on 0 =   113 x   116 x   100 =     1310800
PhiOnMesh: Number of (b)points on node 0 =                18944
PhiOnMesh: nlist on node 0 =                66585

        iscf     Eharris(eV)        E_KS(eV)     FreeEng(eV)     dDmax    Ef(eV) dHmax(eV)
   scf:    1     -465.804408     -465.804408     -465.804408  0.000004 -2.127412  0.000005

SCF Convergence by DM+H criterion
max |DM_out - DM_in|         :     0.0000038358
max |H_out - H_in|      (eV) :     0.0000049388
SCF cycle converged after 1 iterations

Using DM_out to compute the final energy and forces
No. of atoms with KB's overlaping orbs in proc 0. Max # of overlaps:       3      23

siesta: E_KS(eV) =             -465.8044

siesta: Atomic forces (eV/Ang):
----------------------------------------
   Tot    0.000000    0.000336   -0.000000
----------------------------------------
   Max    0.691960
   Res    0.422121    sqrt( Sum f_i^2 / 3N )
----------------------------------------
   Max    0.691960    constrained

Stress-tensor-Voigt (kbar):       -6.88       -2.46       -0.10       -0.00        0.00       -0.00
(Free)E + p*V (eV/cell)     -465.3417
Target enthalpy (eV/cell)     -465.8044

                     ====================================
                        LUA coord. step =     12
                     ====================================

outcell: Unit cell vectors (Ang):
        7.286412    0.000000    0.000000
        0.000000    5.746952    0.000000
        0.000000    0.000000    5.621012

outcell: Cell vector modules (Ang)   :    7.286412    5.746952    5.621012
outcell: Cell angles (23,13,12) (deg):     90.0000     90.0000     90.0000
outcell: Cell volume (Ang**3)        :    235.3780
<dSpData1D:S at geom step 12
  <sparsity:sparsity for geom step 12
    nrows_g=23 nrows=3 sparsity=.1304 nnzs=69, refcount: 7>
  <dData1D:(new from dSpData1D) n=69, refcount: 1>
refcount: 1>
new_DM -- step:    13
Re-using DM from previous geometries...
Number of DMs in history: 1
 DM extrapolation coefficients: 
1   1.00000
New DM after history re-use:
<dSpData2D:SpM extrapolated using coords
  <sparsity:sparsity for geom step 12
    nrows_g=23 nrows=3 sparsity=.1304 nnzs=69, refcount: 9>
  <dData2D:(temp array for extrapolation) n=69 m=1, refcount: 1>
refcount: 1>
No. of atoms with KB's overlaping orbs in proc 0. Max # of overlaps:       3      23
New grid distribution:   1
           1       1:   60    1:   23    1:   12
           2       1:   60    1:   23   13:   23
           3       1:   60    1:   23   24:   34
           4       1:   60    1:   23   35:   45
           5       1:   60   24:   45    1:   12
           6       1:   60   24:   45   13:   23
           7       1:   60   24:   45   24:   34
           8       1:   60   24:   45   35:   45

InitMesh: MESH =   120 x    90 x    90 =      972000
InitMesh: (bp) =    60 x    45 x    45 =      121500
InitMesh: Mesh cutoff (required, used) =   650.000   677.816 Ry
ExtMesh (bp) on 0 =   148 x   107 x    96 =     1520256
New grid distribution:   2
           1      21:   60   14:   45    1:   16
           2      21:   60    1:   13    1:   16
           3      21:   60    1:   13   17:   45
           4       1:   20    1:   13   17:   45
           5       1:   20   14:   45    1:   16
           6       1:   20    1:   13    1:   16
           7      21:   60   14:   45   17:   45
           8       1:   20   14:   45   17:   45
New grid distribution:   3
           1       1:   26   17:   45    1:   19
           2      27:   60    1:   15    1:   19
           3       1:   26   16:   45   20:   45
           4      27:   60    1:   15   20:   45
           5      27:   60   16:   45    1:   19
           6       1:   26    1:   15   20:   45
           7      27:   60   16:   45   20:   45
           8       1:   26    1:   16    1:   19
Setting up quadratic distribution...
ExtMesh (bp) on 0 =   128 x   116 x   100 =     1484800
PhiOnMesh: Number of (b)points on node 0 =                20480
PhiOnMesh: nlist on node 0 =                72824

        iscf     Eharris(eV)        E_KS(eV)     FreeEng(eV)     dDmax    Ef(eV) dHmax(eV)
   scf:    1     -465.804378     -465.804378     -465.804378  0.000012 -2.127402  0.000005

SCF Convergence by DM+H criterion
max |DM_out - DM_in|         :     0.0000123449
max |H_out - H_in|      (eV) :     0.0000053627
SCF cycle converged after 1 iterations

Using DM_out to compute the final energy and forces
No. of atoms with KB's overlaping orbs in proc 0. Max # of overlaps:       3      23

siesta: E_KS(eV) =             -465.8044

siesta: Atomic forces (eV/Ang):
----------------------------------------
   Tot   -0.000000   -0.000566   -0.000000
----------------------------------------
   Max    0.693088
   Res    0.422210    sqrt( Sum f_i^2 / 3N )
----------------------------------------
   Max    0.693088    constrained

Stress-tensor-Voigt (kbar):       -6.89       -2.47       -0.11       -0.00        0.00       -0.00
(Free)E + p*V (eV/cell)     -465.3406
Target enthalpy (eV/cell)     -465.8044

siesta: Program's energy decomposition (eV):
siesta: Ebs     =      -104.323911
siesta: Eions   =       815.854478
siesta: Ena     =       175.155695
siesta: Ekin    =       353.636877
siesta: Enl     =       -63.030730
siesta: Eso     =         0.000000
siesta: Eldau   =         0.000000
siesta: DEna    =        -3.293862
siesta: DUscf   =         0.753714
siesta: DUext   =         0.000000
siesta: Enegf   =         0.000000
siesta: Exc     =      -113.171592
siesta: eta*DQ  =         0.000000
siesta: Emadel  =         0.000000
siesta: Emeta   =         0.000000
siesta: Emolmec =         0.000000
siesta: Ekinion =         0.000000
siesta: Eharris =      -465.804378
siesta: Etot    =      -465.804378
siesta: FreeEng =      -465.804378

siesta: Final energy (eV):
siesta:  Band Struct. =    -104.323911
siesta:       Kinetic =     353.636877
siesta:       Hartree =     385.081076
siesta:       Eldau   =       0.000000
siesta:       Eso     =       0.000000
siesta:    Ext. field =       0.000000
siesta:       Enegf   =       0.000000
siesta:   Exch.-corr. =    -113.171592
siesta:  Ion-electron =   -1079.840077
siesta:       Ion-ion =     -11.510662
siesta:       Ekinion =       0.000000
siesta:         Total =    -465.804378
siesta:         Fermi =      -2.127402

siesta: Atomic forces (eV/Ang):
siesta:      1    0.000000   -0.693088    0.000000
siesta:      2    0.664902    0.346261   -0.000000
siesta:      3   -0.664902    0.346261   -0.000000
siesta: ----------------------------------------
siesta:    Tot   -0.000000   -0.000566   -0.000000

siesta: Stress tensor (static) (eV/Ang**3):
siesta:    -0.004303    0.000000   -0.000000
siesta:    -0.000000   -0.001541    0.000000
siesta:    -0.000000    0.000000   -0.000067

siesta: Cell volume =        235.378012 Ang**3

siesta: Pressure (static):
siesta:                Solid            Molecule  Units
siesta:           0.00002146         -0.00000033  Ry/Bohr**3
siesta:           0.00197036         -0.00003025  eV/Ang**3
siesta:           3.15689514         -0.04847400  kBar
(Free)E+ p_basis*V_orbitals  =        -465.219211
(Free)Eharris+ p_basis*V_orbitals  =        -465.219211

siesta: Electric dipole (a.u.)  =   -0.000000    0.557174   -0.000000
siesta: Electric dipole (Debye) =   -0.000000    1.416196   -0.000000

>> End of run:  18-JUN-2019  12:59:41
Job completed
