
                           ***********************       
                           *  WELCOME TO SIESTA  *       
                           ***********************       

reinit: Reading from standard input
reinit: Dumped input in INPUT_TMP.15500
************************** Dump of input data file ****************************
SystemName          Water molecule
SystemLabel         test
NumberOfAtoms       3
NumberOfSpecies     2
MeshCutoff  50. Ry
%block ChemicalSpeciesLabel
 1  8  O      # Species index, atomic number, species label
 2  1  H
%endblock ChemicalSpeciesLabel
AtomicCoordinatesFormat  Ang
%block AtomicCoordinatesAndAtomicSpecies
 0.000  0.000  0.000  1
 0.757  0.586  0.000  2
-0.757  0.586  0.000  2
%endblock AtomicCoordinatesAndAtomicSpecies
MaxSCFIterations        5
MD.TypeOfRun LUA
Lua.Script conv_meshcutoff.lua
************************** End of input data file *****************************

reinit: -----------------------------------------------------------------------
reinit: System Name: Water molecule
reinit: -----------------------------------------------------------------------
reinit: System Label: test
reinit: -----------------------------------------------------------------------
Siesta Version: siesta-4.1--736
Architecture  : unknown
Compiler flags: mpif90 -O2 -fPIC -ftree-vectorize
PP flags      : -DFC_HAVE_ABORT -DMPI -DFC_HAVE_FLUSH -DFC_HAVE_ABORT -DGRID_DP -DPHI_GRID_SP -DSIESTA__FLOOK
Libraries     :  /usr/lib/libscalapack-openmpi.so   libsiestaLAPACK.a libsiestaBLAS.a libfdict.a /usr/lib/libblacsF77init-openmpi.so /usr/lib/libblacsCinit-openmpi.so /usr/lib/libblacs-openmpi.so  -lflookall -ldl
PARALLEL version

* Running on 8 nodes in parallel
>> Start of run:  14-JUN-2019  16:50:19

initatom: Reading input for the pseudopotentials and atomic orbitals ----------
Species number:   1 Atomic number:    8 Label: O
Species number:   2 Atomic number:    1 Label: H

Ground state valence configuration:   2s02  2p04
Reading pseudopotential information in formatted form from O.psf

Valence configuration for pseudopotential generation:
2s( 2.00) rc: 1.14
2p( 4.00) rc: 1.14
3d( 0.00) rc: 1.14
4f( 0.00) rc: 1.14
Ground state valence configuration:   1s01
Reading pseudopotential information in formatted form from H.psf

Valence configuration for pseudopotential generation:
1s( 1.00) rc: 1.25
2p( 0.00) rc: 1.25
3d( 0.00) rc: 1.25
4f( 0.00) rc: 1.25
For O, standard SIESTA heuristics set lmxkb to 3
 (one more than the basis l, including polarization orbitals).
Use PS.lmax or PS.KBprojectors blocks to override.
For H, standard SIESTA heuristics set lmxkb to 2
 (one more than the basis l, including polarization orbitals).
Use PS.lmax or PS.KBprojectors blocks to override.

<basis_specs>
===============================================================================
O                    Z=   8    Mass=  16.000        Charge= 0.17977+309
Lmxo=1 Lmxkb= 3    BasisType=split      Semic=F
L=0  Nsemic=0  Cnfigmx=2
          n=1  nzeta=2  polorb=0
            splnorm:   0.15000    
               vcte:    0.0000    
               rinn:    0.0000    
               qcoe:    0.0000    
               qyuk:    0.0000    
               qwid:   0.10000E-01
                rcs:    0.0000      0.0000    
            lambdas:    1.0000      1.0000    
L=1  Nsemic=0  Cnfigmx=2
          n=1  nzeta=2  polorb=1
            splnorm:   0.15000    
               vcte:    0.0000    
               rinn:    0.0000    
               qcoe:    0.0000    
               qyuk:    0.0000    
               qwid:   0.10000E-01
                rcs:    0.0000      0.0000    
            lambdas:    1.0000      1.0000    
-------------------------------------------------------------------------------
L=0  Nkbl=1  erefs: 0.17977+309
L=1  Nkbl=1  erefs: 0.17977+309
L=2  Nkbl=1  erefs: 0.17977+309
L=3  Nkbl=1  erefs: 0.17977+309
===============================================================================
</basis_specs>

atom: Called for O                     (Z =   8)

read_vps: Pseudopotential generation method:
read_vps: ATM3      Troullier-Martins                       
Total valence charge:    6.00000

xc_check: Exchange-correlation functional:
xc_check: Ceperley-Alder
V l=0 = -2*Zval/r beyond r=  1.1278
V l=1 = -2*Zval/r beyond r=  1.1278
V l=2 = -2*Zval/r beyond r=  1.1278
V l=3 = -2*Zval/r beyond r=  1.1138
All V_l potentials equal beyond r=  1.1278
This should be close to max(r_c) in ps generation
All pots = -2*Zval/r beyond r=  1.1278

VLOCAL1: 99.0% of the norm of Vloc inside     34.126 Ry
VLOCAL1: 99.9% of the norm of Vloc inside     77.774 Ry
atom: Maximum radius for 4*pi*r*r*local-pseudopot. charge    1.37759
atom: Maximum radius for r*vlocal+2*Zval:    1.18566
GHOST: No ghost state for L =  0
GHOST: No ghost state for L =  1
GHOST: No ghost state for L =  2
GHOST: No ghost state for L =  3

KBgen: Kleinman-Bylander projectors: 
   l= 0   rc=  1.294105   el= -1.742414   Ekb=  9.135903   kbcos=  0.326910
   l= 1   rc=  1.294105   el= -0.676589   Ekb= -8.124878   kbcos= -0.395047
   l= 2   rc=  1.448233   el=  0.002386   Ekb= -2.039267   kbcos= -0.003484
   l= 3   rc=  1.561052   el=  0.003508   Ekb= -0.799141   kbcos= -0.000344

KBgen: Total number of  Kleinman-Bylander projectors:   16
atom: -------------------------------------------------------------------------

atom: SANKEY-TYPE ORBITALS:
atom: Selected multiple-zeta basis: split     

SPLIT: Orbitals with angular momentum L= 0

SPLIT: Basis orbitals for state 2s

SPLIT: PAO cut-off radius determined from an
SPLIT: energy shift=  0.020000 Ry

   izeta = 1
                 lambda =    1.000000
                     rc =    3.305093
                 energy =   -1.723766
                kinetic =    1.614911
    potential(screened) =   -3.338677
       potential(ionic) =  -11.304675

   izeta = 2
                 rmatch =    2.510382
              splitnorm =    0.150000
                 energy =   -1.471299
                kinetic =    2.446434
    potential(screened) =   -3.917732
       potential(ionic) =  -12.476133

SPLIT: Orbitals with angular momentum L= 1

SPLIT: Basis orbitals for state 2p

SPLIT: PAO cut-off radius determined from an
SPLIT: energy shift=  0.020000 Ry

   izeta = 1
                 lambda =    1.000000
                     rc =    3.937239
                 energy =   -0.658841
                kinetic =    5.005986
    potential(screened) =   -5.664827
       potential(ionic) =  -13.452360

   izeta = 2
                 rmatch =    2.541963
              splitnorm =    0.150000
                 energy =   -0.367441
                kinetic =    7.530509
    potential(screened) =   -7.897949
       potential(ionic) =  -16.611953

POLgen: Perturbative polarization orbital with L=  2

POLgen: Polarization orbital for state 2p

   izeta = 1
                     rc =    3.937239
                 energy =    2.398520
                kinetic =    4.716729
    potential(screened) =   -2.318209
       potential(ionic) =   -8.603170
atom: Total number of Sankey-type orbitals: 13

atm_pop: Valence configuration (for local Pseudopot. screening):
 2s( 2.00)                                                            
 2p( 4.00)                                                            
Vna: chval, zval:    6.00000   6.00000

Vna:  Cut-off radius for the neutral-atom potential:   3.937239

atom: _________________________________________________________________________

<basis_specs>
===============================================================================
H                    Z=   1    Mass=  1.0100        Charge= 0.17977+309
Lmxo=0 Lmxkb= 2    BasisType=split      Semic=F
L=0  Nsemic=0  Cnfigmx=1
          n=1  nzeta=2  polorb=1
            splnorm:   0.15000    
               vcte:    0.0000    
               rinn:    0.0000    
               qcoe:    0.0000    
               qyuk:    0.0000    
               qwid:   0.10000E-01
                rcs:    0.0000      0.0000    
            lambdas:    1.0000      1.0000    
-------------------------------------------------------------------------------
L=0  Nkbl=1  erefs: 0.17977+309
L=1  Nkbl=1  erefs: 0.17977+309
L=2  Nkbl=1  erefs: 0.17977+309
===============================================================================
</basis_specs>

atom: Called for H                     (Z =   1)

read_vps: Pseudopotential generation method:
read_vps: ATM3      Troullier-Martins                       
Total valence charge:    1.00000

xc_check: Exchange-correlation functional:
xc_check: Ceperley-Alder
V l=0 = -2*Zval/r beyond r=  1.2343
V l=1 = -2*Zval/r beyond r=  1.2189
V l=2 = -2*Zval/r beyond r=  1.2189
All V_l potentials equal beyond r=  1.2343
This should be close to max(r_c) in ps generation
All pots = -2*Zval/r beyond r=  1.2343

VLOCAL1: 99.0% of the norm of Vloc inside     28.493 Ry
VLOCAL1: 99.9% of the norm of Vloc inside     64.935 Ry
atom: Maximum radius for 4*pi*r*r*local-pseudopot. charge    1.45251
atom: Maximum radius for r*vlocal+2*Zval:    1.21892
GHOST: No ghost state for L =  0
GHOST: No ghost state for L =  1
GHOST: No ghost state for L =  2

KBgen: Kleinman-Bylander projectors: 
   l= 0   rc=  1.364359   el= -0.467325   Ekb= -2.005361   kbcos= -0.336422
   l= 1   rc=  1.434438   el=  0.001430   Ekb= -0.501708   kbcos= -0.021697
   l= 2   rc=  1.470814   el=  0.002365   Ekb= -0.190555   kbcos= -0.002281

KBgen: Total number of  Kleinman-Bylander projectors:    9
atom: -------------------------------------------------------------------------

atom: SANKEY-TYPE ORBITALS:
atom: Selected multiple-zeta basis: split     

SPLIT: Orbitals with angular momentum L= 0

SPLIT: Basis orbitals for state 1s

SPLIT: PAO cut-off radius determined from an
SPLIT: energy shift=  0.020000 Ry

   izeta = 1
                 lambda =    1.000000
                     rc =    4.828263
                 energy =   -0.449375
                kinetic =    0.929372
    potential(screened) =   -1.378747
       potential(ionic) =   -1.915047

   izeta = 2
                 rmatch =    3.854947
              splitnorm =    0.150000
                 energy =   -0.336153
                kinetic =    1.505294
    potential(screened) =   -1.841447
       potential(ionic) =   -2.413582

POLgen: Perturbative polarization orbital with L=  1

POLgen: Polarization orbital for state 1s

   izeta = 1
                     rc =    4.828263
                 energy =    0.706972
                kinetic =    1.396397
    potential(screened) =   -0.689424
       potential(ionic) =   -1.169792
atom: Total number of Sankey-type orbitals:  5

atm_pop: Valence configuration (for local Pseudopot. screening):
 1s( 1.00)                                                            
Vna: chval, zval:    1.00000   1.00000

Vna:  Cut-off radius for the neutral-atom potential:   4.828263

atom: _________________________________________________________________________

prinput: Basis input ----------------------------------------------------------

PAO.BasisType split     

%block ChemicalSpeciesLabel
    1    8 O                       # Species index, atomic number, species label
    2    1 H                       # Species index, atomic number, species label
%endblock ChemicalSpeciesLabel

%block PAO.Basis                 # Define Basis set
O                     2                    # Species label, number of l-shells
 n=2   0   2                         # n, l, Nzeta 
   3.305      2.510   
   1.000      1.000   
 n=2   1   2 P   1                   # n, l, Nzeta, Polarization, NzetaPol
   3.937      2.542   
   1.000      1.000   
H                     1                    # Species label, number of l-shells
 n=1   0   2 P   1                   # n, l, Nzeta, Polarization, NzetaPol
   4.828      3.855   
   1.000      1.000   
%endblock PAO.Basis

prinput: ----------------------------------------------------------------------

coor:   Atomic-coordinates input format  =     Cartesian coordinates
coor:                                          (in Angstroms)

siesta: Atomic coordinates (Bohr) and species
siesta:      0.00000   0.00000   0.00000  1        1
siesta:      1.43052   1.10738   0.00000  2        2
siesta:     -1.43052   1.10738   0.00000  2        3

siesta: Automatic unit cell vectors (Ang):
siesta:    7.286412    0.000000    0.000000
siesta:    0.000000    5.746952    0.000000
siesta:    0.000000    0.000000    5.621012

siesta: System type = molecule  

initatomlists: Number of atoms, orbitals, and projectors:      3    23    34

siesta: ******************** Simulation parameters ****************************
siesta:
siesta: The following are some of the parameters of the simulation.
siesta: A complete list of the parameters used, including default values,
siesta: can be found in file out.fdf
siesta:
redata: Spin configuration                          = none
redata: Number of spin components                   = 1
redata: Time-Reversal Symmetry                      = T
redata: Spin-spiral                                 = F
redata: Long output                                 =   F
redata: Number of Atomic Species                    =        2
redata: Charge density info will appear in .RHO file
redata: Write Mulliken Pop.                         = NO
redata: Mesh Cutoff                                 =    50.0000 Ry
redata: Net charge of the system                    =     0.0000 |e|
redata: Min. number of SCF Iter                     =        0
redata: Max. number of SCF Iter                     =        5
redata: SCF mix quantity                            = Hamiltonian
redata: Mix DM or H after convergence               =   F
redata: Recompute H after scf cycle                 =   F
redata: Mix DM in first SCF step                    =   T
redata: Write Pulay info on disk                    =   F
redata: New DM Mixing Weight                        =     0.2500
redata: New DM Occupancy tolerance                  = 0.000000000001
redata: No kicks to SCF
redata: DM Mixing Weight for Kicks                  =     0.5000
redata: Require Harris convergence for SCF          =   F
redata: Harris energy tolerance for SCF             =     0.000100 eV
redata: Require DM convergence for SCF              =   T
redata: DM tolerance for SCF                        =     0.0001
redata: Require EDM convergence for SCF             =   F
redata: EDM tolerance for SCF                       =     0.001000 eV
redata: Require H convergence for SCF               =   T
redata: Hamiltonian tolerance for SCF               =     0.001000 eV
redata: Require (free) Energy convergence for SCF   =   F
redata: (free) Energy tolerance for SCF             =     0.000100 eV
redata: Using Saved Data (generic)                  =   F
redata: Use continuation files for DM               =   F
redata: Neglect nonoverlap interactions             =   F
redata: Method of Calculation                       = Diagonalization
redata: Divide and Conquer                          =   T
redata: Electronic Temperature                      =   299.9869 K
redata: Fix the spin of the system                  =   F
redata: Dynamics option                             = LUA
mix.SCF: Pulay mixing                            = Pulay
mix.SCF:    Variant                              = stable
mix.SCF:    History steps                        = 2
mix.SCF:    Linear mixing weight                 =     0.250000
mix.SCF:    Mixing weight                        =     0.250000
mix.SCF:    SVD condition                        = 0.1000E-07
redata: ***********************************************************************

%block SCF.Mixers
  Pulay
%endblock SCF.Mixers

%block SCF.Mixer.Pulay
  # Mixing method
  method pulay
  variant stable

  # Mixing options
  weight 0.2500
  weight.linear 0.2500
  history 2
%endblock SCF.Mixer.Pulay

Size of DM history Fstack: 1
Total number of electrons:     8.000000
Total ionic charge:     8.000000

* ProcessorY, Blocksize:    2   3


* Orbital distribution balance (max,min):     3     2

 Kpoints in:            1 . Kpoints trimmed:            1

siesta: k-grid: Number of k-points =     1
siesta: k-grid: Cutoff (effective) =     2.811 Ang
siesta: k-grid: Supercell and displacements
siesta: k-grid:    1   0   0      0.000
siesta: k-grid:    0   1   0      0.000
siesta: k-grid:    0   0   1      0.000

==============================================================================
------------------------------------------------------------------------------
              This Part Generated By LUA for INITALIZE Stage                          
------------------------------------------------------------------------------
LUA: The Starting Mesh-cutoff is   :  150.000 Ry
LUA: The Max Iterations is         :   5 
LUA: The Mixing Weight is          : 0.250000 Ry
LUA: The DM Tolerance is           : 0.000100 Ry
LUA: The Electronic Temperature is :    0.002 Ry
LUA: The Mixer Weight is           :    0.250 Ry
LUA: The Number of Pulay is        :   0 
LUA: The Number of Kick is         :   0 
==============================================================================


                     ====================================
                        LUA coord. step =      0
                     ====================================

outcell: Unit cell vectors (Ang):
        7.286412    0.000000    0.000000
        0.000000    5.746952    0.000000
        0.000000    0.000000    5.621012

outcell: Cell vector modules (Ang)   :    7.286412    5.746952    5.621012
outcell: Cell angles (23,13,12) (deg):     90.0000     90.0000     90.0000
outcell: Cell volume (Ang**3)        :    235.3780
<dSpData1D:S at geom step 0
  <sparsity:sparsity for geom step 0
    nrows_g=23 nrows=3 sparsity=.1304 nnzs=69, refcount: 7>
  <dData1D:(new from dSpData1D) n=69, refcount: 1>
refcount: 1>
new_DM -- step:     1
Initializing Density Matrix...
DM filled with atomic data:
<dSpData2D:DM initialized from atoms
  <sparsity:sparsity for geom step 0
    nrows_g=23 nrows=3 sparsity=.1304 nnzs=69, refcount: 8>
  <dData2D:DM n=69 m=1, refcount: 1>
refcount: 1>

No. of atoms with KB's overlaping orbs in proc 0. Max # of overlaps:       3      23
New grid distribution:   1
           1       1:   27    1:   12    1:    6
           2       1:   27    1:   12    7:   12
           3       1:   27    1:   12   13:   18
           4       1:   27    1:   12   19:   24
           5       1:   27   13:   24    1:    6
           6       1:   27   13:   24    7:   12
           7       1:   27   13:   24   13:   18
           8       1:   27   13:   24   19:   24

InitMesh: MESH =    54 x    48 x    48 =      124416
InitMesh: (bp) =    27 x    24 x    24 =       15552
InitMesh: Mesh cutoff (required, used) =   150.000   151.796 Ry
ExtMesh (bp) on 0 =    67 x    56 x    50 =      187600
New grid distribution:   2
           1       9:   27    8:   24    1:    8
           2       9:   27    1:    7    1:    8
           3       9:   27    1:    7    9:   24
           4       1:    8    1:    7    9:   24
           5       1:    8    8:   24    1:    8
           6       1:    8    1:    7    1:    8
           7       9:   27    8:   24    9:   24
           8       1:    8    8:   24    9:   24
New grid distribution:   3
           1      12:   27    9:   24    1:   10
           2      12:   27    1:    8    1:   10
           3      12:   27    1:    8   11:   24
           4       1:   11    1:    8   11:   24
           5       1:   11   10:   24    1:   10
           6       1:   11    1:    9    1:   10
           7      12:   27    9:   24   11:   24
           8       1:   11    9:   24   11:   24
Setting up quadratic distribution...
ExtMesh (bp) on 0 =    59 x    61 x    52 =      187148
PhiOnMesh: Number of (b)points on node 0 =                 2584
PhiOnMesh: nlist on node 0 =                 9987

stepf: Fermi-Dirac step function

siesta: Program's energy decomposition (eV):
siesta: Ebs     =       -82.665878
siesta: Eions   =       815.854478
siesta: Ena     =       175.154321
siesta: Ekin    =       377.231547
siesta: Enl     =       -69.173859
siesta: Eso     =         0.000000
siesta: Eldau   =         0.000000
siesta: DEna    =       -17.383868
siesta: DUscf   =         2.068398
siesta: DUext   =         0.000000
siesta: Exc     =      -117.041043
siesta: eta*DQ  =         0.000000
siesta: Emadel  =         0.000000
siesta: Emeta   =         0.000000
siesta: Emolmec =         0.000000
siesta: Ekinion =         0.000000
siesta: Eharris =      -466.891770
siesta: Etot    =      -464.998982
siesta: FreeEng =      -464.998982

        iscf     Eharris(eV)        E_KS(eV)     FreeEng(eV)     dDmax    Ef(eV) dHmax(eV)
   scf:    1     -466.891770     -464.998982     -464.998982  1.432045 -4.430798  7.273487
timer: Routine,Calls,Time,% = IterSCF        1       0.028   2.63
LUA: scf count        :   0 
LUA: The Number of Pulay is        :  45 
LUA: The Number of Kick is         :   0 
LUA: The Mixer Weight is           :    0.150 Ry
LUA: The Mixing Weight is          : 0.150000 Ry
   scf:    2     -466.196986     -465.707968     -465.707968  0.060168 -3.234627  2.856327
LUA: scf count        :   1 
LUA: The Number of Pulay is        :  45 
LUA: The Number of Kick is         :   0 
LUA: The Mixer Weight is           :    0.250 Ry
LUA: The Mixing Weight is          : 0.250000 Ry
   scf:    3     -465.796930     -465.798298     -465.798298  0.031756 -2.421259  0.314488
LUA: scf count        :   2 
LUA: The Number of Pulay is        :  45 
LUA: The Number of Kick is         :   0 
LUA: The Mixer Weight is           :    0.250 Ry
LUA: The Mixing Weight is          : 0.250000 Ry
   scf:    4     -465.810192     -465.805020     -465.805020  0.012886 -2.386661  0.316698
LUA: scf count        :   3 
LUA: The Number of Pulay is        :  45 
LUA: The Number of Kick is         :   0 
LUA: The Mixer Weight is           :    0.250 Ry
LUA: The Mixing Weight is          : 0.250000 Ry
   scf:    5     -465.806832     -465.805980     -465.805980  0.003987 -2.367048  0.304008
LUA: scf count        :   4 
LUA: The Number of Pulay is        :  45 
LUA: The Number of Kick is         :   0 
LUA: The Mixer Weight is           :    0.250 Ry
LUA: The Mixing Weight is          : 0.250000 Ry
SCF_NOT_CONV: SCF did not converge in maximum number of steps.
Geom step, scf iteration, dmax:   0  5    0.022344

Using DM_out to compute the final energy and forces
No. of atoms with KB's overlaping orbs in proc 0. Max # of overlaps:       3      23

siesta: E_KS(eV) =             -465.8060

siesta: E_KS - E_eggbox =      -465.8060

siesta: Atomic forces (eV/Ang):
----------------------------------------
   Tot   -0.000000   -0.004567   -0.000000
----------------------------------------
   Max    0.998032
   Res    0.558405    sqrt( Sum f_i^2 / 3N )
----------------------------------------
   Max    0.998032    constrained

Stress-tensor-Voigt (kbar):       -8.44       -3.69       -0.14        0.00        0.00        0.00
(Free)E + p*V (eV/cell)     -465.2052
Target enthalpy (eV/cell)     -465.8060
==============================================================================
------------------------------------------------------------------------------
              This Part Generated By LUA for MOVE Stage                          
------------------------------------------------------------------------------
Is It Converged Last Time          : false
Last Time dDmax was                : 0.003987
LUA: The Starting Mesh-cutoff is   :  151.796 Ry
LUA: The Max Iterations is         :   5 
LUA: The Mixing Weight is          : 0.250000 Ry
LUA: The DM Tolerance is           : 0.000100 Ry
LUA: The Electronic Temperature is :    0.002 Ry
LUA: The Mixer Weight is           :    0.250 Ry
LUA: The Number of Pulay is        :  45 
LUA: The Number of Kick is         :   0 
==============================================================================

false
LUA: The Max Iterations Changed to :  50 
LUA: The Mixer Weight Changed to    :    0.100 Ry
LUA: The Number of Pulay Changed to :  45 
LUA: The Number of Kick Changed to  :  25 

                     ====================================
                        LUA coord. step =      1
                     ====================================

outcell: Unit cell vectors (Ang):
        7.286412    0.000000    0.000000
        0.000000    5.746952    0.000000
        0.000000    0.000000    5.621012

outcell: Cell vector modules (Ang)   :    7.286412    5.746952    5.621012
outcell: Cell angles (23,13,12) (deg):     90.0000     90.0000     90.0000
outcell: Cell volume (Ang**3)        :    235.3780
<dSpData1D:S at geom step 1
  <sparsity:sparsity for geom step 1
    nrows_g=23 nrows=3 sparsity=.1304 nnzs=69, refcount: 7>
  <dData1D:(new from dSpData1D) n=69, refcount: 1>
refcount: 1>
new_DM -- step:     2
Re-using DM from previous geometries...
Number of DMs in history: 1
 DM extrapolation coefficients: 
1   1.00000
New DM after history re-use:
<dSpData2D:SpM extrapolated using coords
  <sparsity:sparsity for geom step 1
    nrows_g=23 nrows=3 sparsity=.1304 nnzs=69, refcount: 8>
  <dData2D:(temp array for extrapolation) n=69 m=1, refcount: 1>
refcount: 1>
No. of atoms with KB's overlaping orbs in proc 0. Max # of overlaps:       3      23
New grid distribution:   1
           1       1:   27    1:   12    1:    6
           2       1:   27    1:   12    7:   12
           3       1:   27    1:   12   13:   18
           4       1:   27    1:   12   19:   24
           5       1:   27   13:   24    1:    6
           6       1:   27   13:   24    7:   12
           7       1:   27   13:   24   13:   18
           8       1:   27   13:   24   19:   24

InitMesh: MESH =    54 x    48 x    48 =      124416
InitMesh: (bp) =    27 x    24 x    24 =       15552
InitMesh: Mesh cutoff (required, used) =   150.000   151.796 Ry
ExtMesh (bp) on 0 =    67 x    56 x    50 =      187600
New grid distribution:   2
           1       9:   27    8:   24    1:    8
           2       9:   27    1:    7    1:    8
           3       9:   27    1:    7    9:   24
           4       1:    8    1:    7    9:   24
           5       1:    8    8:   24    1:    8
           6       1:    8    1:    7    1:    8
           7       9:   27    8:   24    9:   24
           8       1:    8    8:   24    9:   24
New grid distribution:   3
           1      12:   27    9:   24    1:   10
           2      12:   27    1:    8    1:   10
           3      12:   27    1:    8   11:   24
           4       1:   11    1:    8   11:   24
           5       1:   11   10:   24    1:   10
           6       1:   11    1:    9    1:   10
           7      12:   27    9:   24   11:   24
           8       1:   11    9:   24   11:   24
Setting up quadratic distribution...
ExtMesh (bp) on 0 =    59 x    61 x    52 =      187148
PhiOnMesh: Number of (b)points on node 0 =                 2584
PhiOnMesh: nlist on node 0 =                 9987

        iscf     Eharris(eV)        E_KS(eV)     FreeEng(eV)     dDmax    Ef(eV) dHmax(eV)
   scf:    1     -465.805803     -465.806566     -465.806566  0.022839 -2.162361  0.188242
LUA: scf count        :   5 
LUA: The Number of Pulay is        :  45 
LUA: The Number of Kick is         :  25 
LUA: The Mixer Weight is           :    0.250 Ry
LUA: The Mixing Weight is          : 0.250000 Ry
   scf:    2     -465.799402     -465.804910     -465.804910  0.008681 -2.040057  0.349117
LUA: scf count        :   6 
LUA: The Number of Pulay is        :  45 
LUA: The Number of Kick is         :  25 
LUA: The Mixer Weight is           :    0.250 Ry
LUA: The Mixing Weight is          : 0.250000 Ry
   scf:    3     -465.808225     -465.807368     -465.807368  0.005429 -2.119395  0.009652
LUA: scf count        :   7 
LUA: The Number of Pulay is        :  45 
LUA: The Number of Kick is         :  25 
LUA: The Mixer Weight is           :    0.250 Ry
LUA: The Mixing Weight is          : 0.250000 Ry
   scf:    4     -465.807373     -465.807371     -465.807371  0.000111 -2.119901  0.006220
LUA: scf count        :   8 
LUA: The Number of Pulay is        :  45 
LUA: The Number of Kick is         :  25 
LUA: The Mixer Weight is           :    0.250 Ry
LUA: The Mixing Weight is          : 0.250000 Ry
   scf:    5     -465.807373     -465.807372     -465.807372  0.000229 -2.121302  0.001718
LUA: scf count        :   9 
LUA: The Number of Pulay is        :  45 
LUA: The Number of Kick is         :  25 
LUA: The Mixer Weight is           :    0.250 Ry
LUA: The Mixing Weight is          : 0.250000 Ry
   scf:    6     -465.807372     -465.807372     -465.807372  0.000018 -2.121778  0.001161
LUA: scf count        :  10 
LUA: The Number of Pulay is        :  45 
LUA: The Number of Kick is         :  25 
LUA: The Mixer Weight is           :    0.250 Ry
LUA: The Mixing Weight is          : 0.250000 Ry
   scf:    7     -465.807372     -465.807372     -465.807372  0.000032 -2.122995  0.000449

SCF Convergence by DM+H criterion
max |DM_out - DM_in|         :     0.0000322928
max |H_out - H_in|      (eV) :     0.0004486538
SCF cycle converged after 7 iterations
LUA: scf count        :  11 
LUA: The Number of Pulay is        :  45 
LUA: The Number of Kick is         :  25 
LUA: The Mixer Weight is           :    0.250 Ry
LUA: The Mixing Weight is          : 0.250000 Ry

Using DM_out to compute the final energy and forces
No. of atoms with KB's overlaping orbs in proc 0. Max # of overlaps:       3      23

siesta: E_KS(eV) =             -465.8074

siesta: Atomic forces (eV/Ang):
----------------------------------------
   Tot    0.000000   -0.004272   -0.000000
----------------------------------------
   Max    0.739267
   Res    0.441809    sqrt( Sum f_i^2 / 3N )
----------------------------------------
   Max    0.739267    constrained

Stress-tensor-Voigt (kbar):       -7.14       -2.66       -0.14        0.00        0.00        0.00
(Free)E + p*V (eV/cell)     -465.3205
Target enthalpy (eV/cell)     -465.8074
==============================================================================
------------------------------------------------------------------------------
              This Part Generated By LUA for MOVE Stage                          
------------------------------------------------------------------------------
Is It Converged Last Time          : true
Last Time dDmax was                : 0.000032
LUA: The Starting Mesh-cutoff is   :  151.796 Ry
LUA: The Max Iterations is         :  50 
LUA: The Mixing Weight is          : 0.250000 Ry
LUA: The DM Tolerance is           : 0.000100 Ry
LUA: The Electronic Temperature is :    0.002 Ry
LUA: The Mixer Weight is           :    0.250 Ry
LUA: The Number of Pulay is        :  45 
LUA: The Number of Kick is         :  25 
==============================================================================

true

siesta: Program's energy decomposition (eV):
siesta: Ebs     =      -104.322919
siesta: Eions   =       815.854478
siesta: Ena     =       175.154321
siesta: Ekin    =       353.645803
siesta: Enl     =       -63.035588
siesta: Eso     =         0.000000
siesta: Eldau   =         0.000000
siesta: DEna    =        -3.297204
siesta: DUscf   =         0.753838
siesta: DUext   =         0.000000
siesta: Exc     =      -113.174063
siesta: eta*DQ  =         0.000000
siesta: Emadel  =         0.000000
siesta: Emeta   =         0.000000
siesta: Emolmec =         0.000000
siesta: Ekinion =         0.000000
siesta: Eharris =      -465.807372
siesta: Etot    =      -465.807372
siesta: FreeEng =      -465.807372

siesta: Final energy (eV):
siesta:  Band Struct. =    -104.322919
siesta:       Kinetic =     353.645803
siesta:       Hartree =     385.084583
siesta:       Eldau   =       0.000000
siesta:       Eso     =       0.000000
siesta:    Ext. field =       0.000000
siesta:   Exch.-corr. =    -113.174063
siesta:  Ion-electron =   -1079.851745
siesta:       Ion-ion =     -11.511950
siesta:       Ekinion =       0.000000
siesta:         Total =    -465.807372
siesta:         Fermi =      -2.122995

siesta: Atomic forces (eV/Ang):
siesta:      1    0.000000   -0.739267    0.000000
siesta:      2    0.685614    0.367497   -0.000000
siesta:      3   -0.685614    0.367497   -0.000000
siesta: ----------------------------------------
siesta:    Tot    0.000000   -0.004272   -0.000000

siesta: Stress tensor (static) (eV/Ang**3):
siesta:    -0.004457    0.000000   -0.000000
siesta:     0.000000   -0.001660   -0.000000
siesta:     0.000000    0.000000   -0.000089

siesta: Cell volume =        235.378012 Ang**3

siesta: Pressure (static):
siesta:                Solid            Molecule  Units
siesta:           0.00002253         -0.00000015  Ry/Bohr**3
siesta:           0.00206842         -0.00001390  eV/Ang**3
siesta:           3.31400275         -0.02227318  kBar
(Free)E+ p_basis*V_orbitals  =        -465.222205
(Free)Eharris+ p_basis*V_orbitals  =        -465.222205

siesta: Electric dipole (a.u.)  =   -0.000000    0.557261    0.000000
siesta: Electric dipole (Debye) =   -0.000000    1.416417    0.000000
>> End of run:  14-JUN-2019  16:50:21
Job completed
