SystemName           # default value
SystemLabel     44P-nr                                                                          
MPI.Nprocs.SIESTA         8     # default value
SpinPolarized              T
NonCollinearSpin              T
SpinOrbit              T
SpinPolarized
**Warning: FDF symbol 'SpinPolarized' is deprecated.
Spin
           FDF symbol 'Spin' will be used instead.
NonCollinearSpin
**Warning: FDF symbol 'NonCollinearSpin' is deprecated.
Spin
           FDF symbol 'Spin' will be used instead.
SpinOrbit
**Warning: FDF symbol 'SpinOrbit' is deprecated.
Spin
           FDF symbol 'Spin' will be used instead.
Spin     SO                                                                              
TimeReversalSymmetry              F     # default value
DebugObjects.Node         0     # default value
DebugObjects              F     # default value
XML.Write              F     # default value
timer_report_threshold          0.000000000         # default value
UseParallelTimer              T     # default value
UseTreeTimer              F     # default value
alloc_report_level         0     # default value
alloc_report_threshold          0.000000000         # default value
xc.functional     LDA                                                                             
xc.authors     CA                                                                              
MM.Cutoff          30.00000000     Bohr     # default value
MM.UnitsEnergy     eV     # default value
MM.UnitsDistance     Ang     # default value
WriteIonPlotFiles              F     # default value
Atom.Debug.KB.Generation              F     # default value
KB.New.Reference.Orbitals              F     # default value
user-basis              F     # default value
user-basis-netcdf              F     # default value
ReparametrizePseudos              F     # default value
Restricted.Radial.Grid              F
Rmax.Radial.Grid          0.000000000         # default value
PAO.BasisSize     standard            # default value
PAO.BasisType     split          # default value
PAO.SoftDefault              F     # default value
PAO.SoftInnerRadius         0.9000000000         # default value
PAO.SoftPotential          40.00000000         # default value
PAO.SplitNorm         0.1500000000         # default value
PAO.SplitNormH         -1.000000000         # default value
%block Chemical_species_label
Number_of_species              2
%block Chemical_species_label
     1   34  Se
     2   42  Mo
%endblock Chemical_species_label
%block PAO.Basis
 Se       5     -0.46385
  n=4   0   2   E    15.42551     4.96988
      7.00000     4.37722
      1.00000     1.00000
  n=4   1   2   E     4.69636     3.83128
      8.00000     4.09123
      1.00000     1.00000
  n=4   2   1   E    11.96912     0.03131
      4.55426
      1.00000
  n=5   0   1   E    15.42551     4.96988
      8.50000
      1.00000
  n=5   1   1   E     4.69636     3.83128
      9.00000
      1.00000
 Mo       3      1.81810
  n=5   0   2   E   100.92217     4.67774
       6.99328     4.10043
       1.00000     1.00000
  n=5   1   1   E   169.69081     4.14384
       6.86908
       1.00000
  n=4   2   2   E    98.27855     5.58473
       8.26967     4.75263
       1.00000     1.00000
%endblock PAO.Basis
LDAU.ProjectorGenerationMethod         2     # default value
LDAU.EnergyShift         0.5000000000E-01 Ry     # default value
LDAU.CutoffNorm         0.9000000000         # default value
PAO.SoftDefault              F     # default value
PAO.SoftInnerRadius         0.9000000000         # default value
PAO.SoftPotential          40.00000000         # default value
LDAU.ThresholdTol         0.1000000000E-01     # default value
LDAU.PopTol         0.1000000000E-02     # default value
LDAU.PotentialShift              F     # default value
LDAU.FirstIteration              F     # default value
FilterCutoff          0.000000000     Ry     # default value
FilterTol          0.000000000     Ry     # default value
KB.Rmax          6.000000000     Bohr     # default value
PAO.EnergyShift         0.2000000000E-01 Ry     # default value
PAO.SplitTailNorm              F     # default value
PAO.FixSplitTable              F     # default value
PAO.NewSplitCode              F     # default value
PAO.Filter              F     # default value
PAO.Filter              F     # default value
PAO.Filter              F     # default value
PAO.Filter              F     # default value
PAO.Filter              F     # default value
PAO.Filter              F     # default value
PAO.Filter              F     # default value
PAO.OldStylePolorbs              F
PAO.SplitTailNorm              F     # default value
PAO.FixSplitTable              F     # default value
PAO.NewSplitCode              F     # default value
Vna.Filter              F     # default value
PCC.Filter              F     # default value
FilterCutoff          0.000000000     Ry     # default value
FilterTol          0.000000000     Ry     # default value
KB.Rmax          6.000000000     Bohr     # default value
PAO.EnergyShift         0.2000000000E-01 Ry     # default value
PAO.SplitTailNorm              F     # default value
PAO.FixSplitTable              F     # default value
PAO.NewSplitCode              F     # default value
PAO.Filter              F     # default value
PAO.Filter              F     # default value
PAO.Filter              F     # default value
PAO.Filter              F     # default value
PAO.Filter              F     # default value
PAO.OldStylePolorbs              F
PAO.SplitTailNorm              F     # default value
PAO.FixSplitTable              F     # default value
PAO.NewSplitCode              F     # default value
Vna.Filter              F     # default value
PAO.BasisType     split          # default value
Atom-Setup-Only              F     # default value
UseStructFile              F     # default value
MD.UseStructFile              F     # default value
LatticeConstant          1.889726878           Bohr
# above item originally: LatticeConstant          1.000000000     Ang       
%block LatticeVectors
    9.7080000000    0.0000000000    0.0000000000
    0.0000000000   70.0000000000    0.0000000000
    0.0000000000    0.0000000000   20.0000000000
AtomicCoordinatesFormat     Fractional                                                                      
NumberOfAtoms            168
ZM.UnitsLength     Bohr           # default value
ZM.UnitsAngle     rad            # default value
ZM.ForceTolLength         0.1555740000E-02 Ry/Bohr     # default value
ZM.ForceTolAngle         0.3565490000E-02 Ry/rad     # default value
ZM.MaxDisplLength         0.2000000000     Bohr     # default value
ZM.MaxDisplAngle         0.3000000000E-02 rad     # default value
ZM.CalcAllForces              F     # default value
%block AtomicCoordinatesAndAtomicSpecies
     0.99999384    0.00936686    0.21790035   1       1  Se
     0.99999323    0.00934722    0.10450500   1       2  Se
     0.99999276    0.04172957    0.16113170   2       3  Mo
     0.99999168    0.09372423    0.24433693   1       4  Se
     0.99999182    0.09371268    0.07777686   1       5  Se
     0.99999107    0.12048657    0.16103726   2       6  Mo
     0.99998980    0.17386265    0.07763409   1       7  Se
     0.99998984    0.17385126    0.24447278   1       8  Se
     0.99998979    0.20063048    0.16108064   2       9  Mo
     0.99999061    0.25402983    0.24454527   1      10  Se
     0.99999008    0.25405029    0.07775251   1      11  Se
     0.99999301    0.28078998    0.16119055   2      12  Mo
     0.99999446    0.33417474    0.24679478   1      13  Se
     0.99999463    0.33420600    0.07580497   1      14  Se
     0.00001050    0.35913783    0.16135698   2      15  Mo
     0.00001622    0.39647176    0.16143610   2      16  Mo
     0.00001289    0.42142683    0.07597640   1      17  Se
     0.00001260    0.42141185    0.24696269   1      18  Se
     0.00002446    0.47482033    0.16148535   2      19  Mo
     0.00002711    0.50156514    0.07806621   1      20  Se
     0.00002756    0.50157700    0.24485693   1      21  Se
     0.00002959    0.55498358    0.16140456   2      22  Mo
     0.00003007    0.58175851    0.07797956   1      23  Se
     0.00002997    0.58175880    0.24481509   1      24  Se
     0.00003108    0.63513266    0.16143920   2      25  Mo
     0.00003057    0.66191219    0.07820338   1      26  Se
     0.00003118    0.66189090    0.24476130   1      27  Se
     0.00003011    0.71389112    0.16157786   2      28  Mo
     0.00002998    0.74627202    0.10493648   1      29  Se
     0.00003171    0.74625576    0.21833152   1      30  Se
     0.16665846    0.05344929    0.24618619   1      31  Se
     0.16665840    0.05342784    0.07603754   1      32  Se
     0.16666292    0.08026482    0.16107101   2      33  Mo
     0.16665917    0.13377293    0.24446144   1      34  Se
     0.16665935    0.13377402    0.07761118   1      35  Se
     0.16666193    0.16055454    0.16104366   2      36  Mo
     0.16665087    0.21393914    0.24452255   1      37  Se
     0.16665186    0.21395550    0.07767001   1      38  Se
     0.16665906    0.24070287    0.16113044   2      39  Mo
     0.16665960    0.29411637    0.24447172   1      40  Se
     0.16666079    0.29414245    0.07795892   1      41  Se
     0.16666466    0.32095122    0.16126954   2      42  Mo
     0.16662483    0.37781812    0.08275261   1      43  Se
     0.16662530    0.37779217    0.24004197   1      44  Se
     0.16668685    0.43465875    0.16148072   2      45  Mo
     0.16669228    0.46148132    0.07823085   1      46  Se
     0.16669005    0.46147985    0.24474433   1      47  Se
     0.16669788    0.51490920    0.16144717   2      48  Mo
     0.16669525    0.54165962    0.07799256   1      49  Se
     0.16669246    0.54167179    0.24484047   1      50  Se
     0.16669982    0.59506210    0.16140045   2      51  Mo
     0.16669596    0.62185105    0.07799953   1      52  Se
     0.16669502    0.62183826    0.24484718   1      53  Se
     0.16670376    0.67535501    0.16150546   2      54  Mo
     0.16669445    0.70219413    0.07648315   1      55  Se
     0.16670117    0.70216918    0.24662995   1      56  Se
     0.33331409    0.00936628    0.21789966   1      57  Se
     0.33331479    0.00934673    0.10450321   1      58  Se
     0.33331922    0.04172866    0.16113163   2      59  Mo
     0.33332290    0.09372394    0.24433895   1      60  Se
     0.33332395    0.09371262    0.07777458   1      61  Se
     0.33332080    0.12048589    0.16103735   2      62  Mo
     0.33332246    0.17385188    0.24447523   1      63  Se
     0.33332361    0.17386326    0.07763253   1      64  Se
     0.33331649    0.20063055    0.16108096   2      65  Mo
     0.33332515    0.25402888    0.24454790   1      66  Se
     0.33332488    0.25404945    0.07775149   1      67  Se
     0.33332309    0.28078953    0.16119138   2      68  Mo
     0.33332966    0.33417666    0.24679444   1      69  Se
     0.33333128    0.33420750    0.07580379   1      70  Se
     0.33333396    0.35913866    0.16135599   2      71  Mo   # move +0.000000y
     0.33333853    0.39647131    0.16143556   2      72  Mo   # move -0.000000y
     0.33335090    0.42142542    0.07597447   1      73  Se
     0.33334650    0.42140990    0.24696401   1      74  Se
     0.33335400    0.47482099    0.16148530   2      75  Mo
     0.33336029    0.50156595    0.07806324   1      76  Se
     0.33336448    0.50157713    0.24485743   1      77  Se
     0.33335946    0.55498396    0.16140589   2      78  Mo
     0.33336407    0.58175830    0.07797853   1      79  Se
     0.33336404    0.58175921    0.24481759   1      80  Se
     0.33336052    0.63513256    0.16143943   2      81  Mo
     0.33336569    0.66191182    0.07819948   1      82  Se
     0.33336440    0.66188998    0.24476332   1      83  Se
     0.33335741    0.71389194    0.16157672   2      84  Mo
     0.33335137    0.74627233    0.10493568   1      85  Se
     0.33334979    0.74625575    0.21833278   1      86  Se
     0.49999265    0.05344893    0.24618265   1      87  Se
     0.49999257    0.05342747    0.07604114   1      88  Se
     0.49999203    0.08026531    0.16107103   2      89  Mo
     0.49999070    0.13377326    0.24445858   1      90  Se
     0.49999096    0.13377485    0.07761404   1      91  Se
     0.49999031    0.16055556    0.16104421   2      92  Mo
     0.49998945    0.21393851    0.24452037   1      93  Se
     0.49998933    0.21395507    0.07767274   1      94  Se
     0.49998954    0.24070254    0.16113085   2      95  Mo
     0.49999254    0.29411641    0.24447097   1      96  Se
     0.49999225    0.29414219    0.07796051   1      97  Se
     0.49999908    0.32095190    0.16126978   2      98  Mo
     0.50005863    0.37781874    0.08275489   1      99  Se
     0.50005855    0.37779270    0.24004077   1     100  Se
     0.50001974    0.43465820    0.16148116   2     101  Mo
     0.50002215    0.46148129    0.07823343   1     102  Se
     0.50002174    0.46147952    0.24474210   1     103  Se
     0.50002747    0.51490897    0.16144616   2     104  Mo
     0.50002880    0.54165979    0.07799379   1     105  Se
     0.50002891    0.54167166    0.24484000   1     106  Se
     0.50003053    0.59506192    0.16140033   2     107  Mo
     0.50003205    0.62185128    0.07800298   1     108  Se
     0.50003186    0.62183789    0.24484618   1     109  Se
     0.50003049    0.67535427    0.16150531   2     110  Mo
     0.50002987    0.70219442    0.07648518   1     111  Se
     0.50003109    0.70216945    0.24662622   1     112  Se
     0.66667205    0.00936626    0.21789966   1     113  Se
     0.66667121    0.00934673    0.10450322   1     114  Se
     0.66666618    0.04172857    0.16113159   2     115  Mo
     0.66666086    0.09372397    0.24433906   1     116  Se
     0.66665906    0.09371260    0.07777453   1     117  Se
     0.66666119    0.12048588    0.16103740   2     118  Mo
     0.66665726    0.17385193    0.24447529   1     119  Se
     0.66665668    0.17386333    0.07763240   1     120  Se
     0.66666277    0.20063058    0.16108097   2     121  Mo
     0.66665423    0.25402887    0.24454788   1     122  Se
     0.66665416    0.25404936    0.07775147   1     123  Se
     0.66666066    0.28078934    0.16119126   2     124  Mo
     0.66666958    0.33417524    0.24679512   1     125  Se
     0.66666825    0.33420609    0.07580338   1     126  Se
     0.66666729    0.35913805    0.16135631   2     127  Mo    #move +0.000000y
     0.66667458    0.39647219    0.16143559   2     128  Mo    #move -0.000000y
     0.66668577    0.42142691    0.07597387   1     129  Se
     0.66668821    0.42141143    0.24696439   1     130  Se
     0.66669296    0.47482111    0.16148521   2     131  Mo
     0.66668876    0.50157705    0.24485765   1     132  Se
     0.66669454    0.50156607    0.07806351   1     133  Se
     0.66669980    0.55498389    0.16140603   2     134  Mo
     0.66669683    0.58175823    0.07797858   1     135  Se
     0.66669659    0.58175922    0.24481766   1     136  Se
     0.66670266    0.63513252    0.16143933   2     137  Mo
     0.66669688    0.66188988    0.24476341   1     138  Se
     0.66669582    0.66191181    0.07819958   1     139  Se
     0.66670379    0.71389198    0.16157699   2     140  Mo
     0.66671155    0.74627237    0.10493617   1     141  Se
     0.66671431    0.74625577    0.21833337   1     142  Se
     0.83332718    0.05344927    0.24618617   1     143  Se
     0.83332717    0.05342782    0.07603764   1     144  Se
     0.83332087    0.08026482    0.16107093   2     145  Mo
     0.83332247    0.13377299    0.24446128   1     146  Se
     0.83332197    0.13377400    0.07761121   1     147  Se
     0.83331822    0.16055458    0.16104359   2     148  Mo
     0.83332845    0.21393922    0.24452250   1     149  Se
     0.83332742    0.21395549    0.07767005   1     150  Se
     0.83332058    0.24070291    0.16113045   2     151  Mo
     0.83332676    0.29411576    0.24447234   1     152  Se
     0.83332576    0.29414190    0.07795808   1     153  Se
     0.83332652    0.32095099    0.16126952   2     154  Mo
     0.83333655    0.37781807    0.08276803   1     155  Se
     0.83333657    0.37779218    0.24002675   1     156  Se
     0.83334640    0.43465906    0.16148076   2     157  Mo
     0.83335443    0.46148192    0.07822998   1     158  Se
     0.83335561    0.46148050    0.24474519   1     159  Se
     0.83335774    0.51490919    0.16144750   2     160  Mo
     0.83336352    0.54165948    0.07799245   1     161  Se
     0.83336808    0.54167176    0.24484071   1     162  Se
     0.83336092    0.59506211    0.16140033   2     163  Mo
     0.83336738    0.62185096    0.07799925   1     164  Se
     0.83336688    0.62183824    0.24484718   1     165  Se
     0.83335749    0.67535502    0.16150551   2     166  Mo
     0.83336482    0.70219411    0.07648288   1     167  Se
     0.83336015    0.70216917    0.24662990   1     168  Se
MD.UseSaveXV              T
MD.UseSaveZM              F     # default value
WriteCoorInitial              T
MD.InitialTimeStep         1     # default value
MD.FinalTimeStep         1     # default value
MD.TypeOfRun     LUA                                                                             
MaxBondDistance          6.000000000     Bohr     # default value
LatticeConstant          1.889726878           Bohr
# above item originally: LatticeConstant          1.000000000     Ang       
Output-Structure-Only              F     # default value
WriteCoorXmol              T
#:physical? MaxWalltime              F
MaxWalltime         0.1797693135+309     # default value
#:physical? MaxWalltime.Slack              F
MaxWalltime.Slack          5.000000000         # default value
HSetupOnly              F     # default value
LongOutput              F     # default value
WriteDenchar              F     # default value
WriteMullikenPop              1
WriteHirshfeldPop              F     # default value
WriteVoronoiPop              F     # default value
PartialChargesAtEveryGeometry              F     # default value
PartialChargesAtEveryScfStep              F     # default value
MeshCutoff          750.0000000             Ry
# above item originally: MeshCutoff          750.0000000     Ry        
NetCharge         -1.200000000    
MinSCFIterations         0     # default value
MaxSCFIterations             10
SCFMustConverge              F     # default value
TS.MixH              T     # default value
MixHamiltonian              T     # default value
MixCharge              F     # default value
SCF.Mix     Hamiltonian     # default value
Compat-pre-v4-DM-H              F     # default value
SCF.MixAfterConvergence              F     # default value
SCF.Recompute-H-After-Scf              F     # default value
DM.NumberPulay         0     # default value
DM.NumberBroyden         0     # default value
DM.FIRE.Mixing              F     # default value
DM.MixSCF1              T     # default value
SCF.Mix.First              T     # default value
DM.PulayOnFile              F     # default value
DM.MixingWeight         0.2500000000         # default value
DM.OccupancyTolerance         0.1000000000E-11     # default value
DM.NumberKick             15
DM.KickMixingWeight         0.5000000000         # default value
DM.RequireHarrisConvergence              F     # default value
SCF.Harris.Converge              F     # default value
DM.HarrisTolerance         0.7349806700E-05 Ry     # default value
SCF.Harris.Tolerance         0.7349806700E-05 Ry     # default value
SCF.DM.Converge              T     # default value
DM.Tolerance         0.1000000000E-03
SCF.DM.Tolerance         0.1000000000E-03     # default value
SCF.EDM.Converge              F     # default value
SCF.EDM.Tolerance         0.7349806700E-04 Ry     # default value
SCF.H.Converge              T     # default value
SCF.H.Tolerance         0.7349806700E-04 Ry     # default value
DM.RequireEnergyConvergence              F     # default value
SCF.FreeE.Converge              F     # default value
DM.EnergyTolerance         0.7349806700E-05 Ry     # default value
SCF.FreeE.Tolerance         0.7349806700E-05 Ry     # default value
MonitorForcesInSCF              F     # default value
SCF.MonitorForces              F     # default value
UseSaveData              T
DM.UseSaveDM              T
NeglNonOverlapInt              F     # default value
SolutionMethod     diagon                                                                          
Diag.DivideAndConquer              T     # default value
Diag.Memory          1.000000000         # default value
ElectronicTemperature         0.3166782115E-04         Ry
# above item originally: ElectronicTemperature          5.000000000     K         
FixSpin              F     # default value
Spin.Fix              F     # default value
ON.MaxNumIter      1000     # default value
ON.etol         0.1000000000E-07     # default value
ON.eta          0.000000000     Ry     # default value
ON.eta_alpha          0.000000000     Ry     # default value
ON.eta_beta          0.000000000     Ry     # default value
On.RcLWF          9.500000000     Bohr     # default value
ON.UseSaveLWF              T     # default value
ON.functional     kim     # default value
ON.ChemicalPotentialUse              F     # default value
ON.ChemicalPotential              F     # default value
ON.ChemicalPotentialRc          9.500000000     Bohr     # default value
ON.ChemicalPotentialTemperature         0.5000000000E-01 Ry     # default value
ON.ChemicalPotentialOrder       100     # default value
MD.VariableCell              F
compat-pre-v4-dynamics              F     # default value
MD.TypeOfRun     LUA                                                                             
MD.NumCGsteps              0
MD.MaxCGDispl         0.2000000000     Bohr     # default value
MD.MaxForceTol         0.3889348769E-03    Ry/Bohr
# above item originally: MD.MaxForceTol         0.1000000000E-01 eV/Ang    
MD.MaxStressTol         0.6797730000E-04 Ry/Bohr**3     # default value
GeometryMustConverge              F     # default value
MD.InitialTimeStep         1     # default value
MD.FinalTimeStep         1     # default value
MD.LengthTimeStep          1.000000000     fs     # default value
MD.Quench              F     # default value
MD.FireQuench              F     # default value
MD.InitialTemperature          0.000000000     K     # default value
MD.TargetTemperature          0.000000000     K     # default value
MD.TargetPressure          0.000000000     Ry/Bohr**3     # default value
MD.NoseMass          100.0000000     Ry*fs**2     # default value
MD.ParrinelloRahmanMass          100.0000000     Ry*fs**2     # default value
MD.AnnealOption     TemperatureAndPressure     # default value
MD.TauRelax          100.0000000     fs     # default value
MD.BulkModulus         0.6797730000E-02 Ry/Bohr**3     # default value
MD.FCDispl         0.4000000000E-01 Bohr     # default value
MD.FCfirst         1     # default value
MD.FClast       168     # default value
UseSpatialDecomposition              F     # default value
UseDomainDecomposition              F     # default value
SCF.Mix.Spin     all     # default value
Mixer.Debug              F     # default value
Mixer.Debug.MPI              F     # default value
DM.NumberPulay         2     # default value
DM.NumberBroyden         0     # default value
DM.MixingWeight         0.2500000000         # default value
DM.NumberKick             15
DM.KickMixingWeight         0.5000000000         # default value
SCF.LinearMixingAfterPulay              F     # default value
SCF.MixingWeightAfterPulay         0.2500000000         # default value
SCF.Mixer.History         2     # default value
SCF.Mixer.Weight         0.2500000000         # default value
SCF.Mixer.Kick        15     # default value
SCF.Mixer.Kick.Weight         0.5000000000         # default value
SCF.Mixer.Restart         0     # default value
SCF.Mixer.Restart.Save         1     # default value
SCF.Mixer.Method     Pulay     # default value
SCF.Mixer.Variant     original     # default value
SCF.Mixer.Linear.After        -1     # default value
SCF.Mixer.Linear.After.Weight         0.2500000000         # default value
Harris_functional              F     # default value
WriteKpoints              F     # default value
WriteForces              F     # default value
WriteDM              T     # default value
WriteDM.End.Of.Cycle              T     # default value
WriteH              F     # default value
WriteH.End.Of.Cycle              F     # default value
WriteDM.NetCDF              F     # default value
WriteDM.History.NetCDF              F     # default value
WriteDMHS.NetCDF              F     # default value
WriteDMHS.History.NetCDF              F     # default value
SCF.Read.Charge.NetCDF              F     # default value
SCF.Read.Deformation.Charge.NetCDF              F     # default value
SaveInitialChargeDensity              F     # default value
AnalyzeChargeDensityOnly              F     # default value
UseNewDiagk              F     # default value
WriteBands              T
WriteKbands              T
WriteEigenvalues              F     # default value
WriteCoorStep              T
WriteMDhistory              F     # default value
WriteMDXmol              T
Write.Graphviz     none     # default value
WriteCoorStep              T
SaveHS              F     # default value
FixAuxiliaryCell              F     # default value
NaiveAuxiliaryCell              F     # default value
ReInitialiseDM              T     # default value
DM.AllowReuse              T     # default value
DM.AllowExtrapolation              T     # default value
DM.History.Depth              0
DM.NormalizationTolerance         0.1000000000E-04     # default value
DM.NormalizeDuringSCF              T     # default value
MullikenInSCF              F     # default value
WarningMinimumAtomicDistance          1.000000000     Bohr     # default value
BornCharge              F     # default value
ChangeKgridInMD              F     # default value
Diag.ParallelOverK              F     # default value
MD.RelaxCellOnly              F     # default value
MD.RemoveIntraMolecularPressure              F     # default value
COOP.Write              F     # default value
SaveRho              F     # default value
SaveDeltaRho              F     # default value
SaveRhoXC              F     # default value
SaveElectrostaticPotential              F     # default value
SaveNeutralAtomPotential              F     # default value
SaveTotalPotential              F     # default value
SaveIonicCharge              F     # default value
SaveBaderCharge              F     # default value
SaveTotalCharge              F     # default value
Siesta2Wannier90.WriteMmn              F     # default value
Siesta2Wannier90.WriteUnk              F     # default value
Siesta2Wannier90.WriteAmn              F     # default value
Siesta2Wannier90.WriteEig              F     # default value
Siesta2Wannier90.NumberOfBandsUp         0     # default value
Siesta2Wannier90.NumberOfBandsDown         0     # default value
Siesta2Wannier90.NumberOfBands         0     # default value
DM.AllowReuse              T     # default value
DM.AllowExtrapolation              T     # default value
RcSpatial          0.000000000     Bohr     # default value
ProcessorGridX         1     # default value
ProcessorGridY         1     # default value
ProcessorGridZ         1     # default value
processorY         2     # default value
blocksize        24     # default value
NumberOfEigenStates      2748     # default value
TimeReversalSymmetryForKpoints              F     # default value
%block kgrid_Monkhorst_Pack
  60  0  0    0.0
   0  1  0    0.0
   0  0  1    0.0
%block BandLines
BandLines
BandLinesScale     ReciprocalLatticeVectors                                                        
%block BandLines
   1    0.000000000000   0.000000000000   0.0000       \Gamma
  60    0.500000000000   0.000000000000   0.0000       M
%endblock BandLines
%block BandLines
BandLines
BandLinesScale     ReciprocalLatticeVectors                                                        
%block BandLines
   1    0.000000000000   0.000000000000   0.0000       \Gamma
  60    0.500000000000   0.000000000000   0.0000       M
%endblock BandLines
LongOutput              F     # default value
WriteWaveFunctions              F     # default value
ForceAuxCell              F     # default value
LUA.Script           # default value
AtomicCoordinatesFormat     Fractional                                                                      
AtomCoorFormatOut     fractional                                                                      
LatticeConstant          1.889726878           Bohr
# above item originally: LatticeConstant          1.000000000     Ang       
