
                           ***********************       
                           *  WELCOME TO SIESTA  *       
                           ***********************       

reinit: Reading from standard input
reinit: Dumped input in INPUT_TMP.84841
************************** Dump of input data file ****************************
SystemLabel      44P-nr
NetCharge        -1.2
NumberOfAtoms    168
NumberOfSpecies  2
%block ChemicalSpeciesLabel
    1   34  Se
    2   42  Mo
%endblock ChemicalSpeciesLabel
LatticeConstant 1.0 Ang
%block LatticeVectors
   9.7080000000    0.0000000000    0.0000000000
   0.0000000000   70.0000000000    0.0000000000
   0.0000000000    0.0000000000   20.0000000000
%endblock LatticeVectors
%block DM.InitSpin
15   +1.   0.0   0.
16   +1.   0.0   0.
71   +1.   0.0   0.
72   +1.   0.0   0.
127  +1.   0.0   0.
128  +1.   0.0   0.
%endblock DM.InitSpin
AtomicCoordinatesFormat Fractional
%block AtomicCoordinatesAndAtomicSpecies
    0.99999384    0.00936686    0.21790035   1       1  Se
    0.99999323    0.00934722    0.10450500   1       2  Se
    0.99999276    0.04172957    0.16113170   2       3  Mo
    0.99999168    0.09372423    0.24433693   1       4  Se
    0.99999182    0.09371268    0.07777686   1       5  Se
    0.99999107    0.12048657    0.16103726   2       6  Mo
    0.99998980    0.17386265    0.07763409   1       7  Se
    0.99998984    0.17385126    0.24447278   1       8  Se
    0.99998979    0.20063048    0.16108064   2       9  Mo
    0.99999061    0.25402983    0.24454527   1      10  Se
    0.99999008    0.25405029    0.07775251   1      11  Se
    0.99999301    0.28078998    0.16119055   2      12  Mo
    0.99999446    0.33417474    0.24679478   1      13  Se
    0.99999463    0.33420600    0.07580497   1      14  Se
    0.00001050    0.35913783    0.16135698   2      15  Mo
    0.00001622    0.39647176    0.16143610   2      16  Mo
    0.00001289    0.42142683    0.07597640   1      17  Se
    0.00001260    0.42141185    0.24696269   1      18  Se
    0.00002446    0.47482033    0.16148535   2      19  Mo
    0.00002711    0.50156514    0.07806621   1      20  Se
    0.00002756    0.50157700    0.24485693   1      21  Se
    0.00002959    0.55498358    0.16140456   2      22  Mo
    0.00003007    0.58175851    0.07797956   1      23  Se
    0.00002997    0.58175880    0.24481509   1      24  Se
    0.00003108    0.63513266    0.16143920   2      25  Mo
    0.00003057    0.66191219    0.07820338   1      26  Se
    0.00003118    0.66189090    0.24476130   1      27  Se
    0.00003011    0.71389112    0.16157786   2      28  Mo
    0.00002998    0.74627202    0.10493648   1      29  Se
    0.00003171    0.74625576    0.21833152   1      30  Se
    0.16665846    0.05344929    0.24618619   1      31  Se
    0.16665840    0.05342784    0.07603754   1      32  Se
    0.16666292    0.08026482    0.16107101   2      33  Mo
    0.16665917    0.13377293    0.24446144   1      34  Se
    0.16665935    0.13377402    0.07761118   1      35  Se
    0.16666193    0.16055454    0.16104366   2      36  Mo
    0.16665087    0.21393914    0.24452255   1      37  Se
    0.16665186    0.21395550    0.07767001   1      38  Se
    0.16665906    0.24070287    0.16113044   2      39  Mo
    0.16665960    0.29411637    0.24447172   1      40  Se
    0.16666079    0.29414245    0.07795892   1      41  Se
    0.16666466    0.32095122    0.16126954   2      42  Mo
    0.16662483    0.37781812    0.08275261   1      43  Se
    0.16662530    0.37779217    0.24004197   1      44  Se
    0.16668685    0.43465875    0.16148072   2      45  Mo
    0.16669228    0.46148132    0.07823085   1      46  Se
    0.16669005    0.46147985    0.24474433   1      47  Se
    0.16669788    0.51490920    0.16144717   2      48  Mo
    0.16669525    0.54165962    0.07799256   1      49  Se
    0.16669246    0.54167179    0.24484047   1      50  Se
    0.16669982    0.59506210    0.16140045   2      51  Mo
    0.16669596    0.62185105    0.07799953   1      52  Se
    0.16669502    0.62183826    0.24484718   1      53  Se
    0.16670376    0.67535501    0.16150546   2      54  Mo
    0.16669445    0.70219413    0.07648315   1      55  Se
    0.16670117    0.70216918    0.24662995   1      56  Se
    0.33331409    0.00936628    0.21789966   1      57  Se
    0.33331479    0.00934673    0.10450321   1      58  Se
    0.33331922    0.04172866    0.16113163   2      59  Mo
    0.33332290    0.09372394    0.24433895   1      60  Se
    0.33332395    0.09371262    0.07777458   1      61  Se
    0.33332080    0.12048589    0.16103735   2      62  Mo
    0.33332246    0.17385188    0.24447523   1      63  Se
    0.33332361    0.17386326    0.07763253   1      64  Se
    0.33331649    0.20063055    0.16108096   2      65  Mo
    0.33332515    0.25402888    0.24454790   1      66  Se
    0.33332488    0.25404945    0.07775149   1      67  Se
    0.33332309    0.28078953    0.16119138   2      68  Mo
    0.33332966    0.33417666    0.24679444   1      69  Se
    0.33333128    0.33420750    0.07580379   1      70  Se
    0.33333396    0.35913866    0.16135599   2      71  Mo   # move +0.000000y
    0.33333853    0.39647131    0.16143556   2      72  Mo   # move -0.000000y
    0.33335090    0.42142542    0.07597447   1      73  Se
    0.33334650    0.42140990    0.24696401   1      74  Se
    0.33335400    0.47482099    0.16148530   2      75  Mo
    0.33336029    0.50156595    0.07806324   1      76  Se
    0.33336448    0.50157713    0.24485743   1      77  Se
    0.33335946    0.55498396    0.16140589   2      78  Mo
    0.33336407    0.58175830    0.07797853   1      79  Se
    0.33336404    0.58175921    0.24481759   1      80  Se
    0.33336052    0.63513256    0.16143943   2      81  Mo
    0.33336569    0.66191182    0.07819948   1      82  Se
    0.33336440    0.66188998    0.24476332   1      83  Se
    0.33335741    0.71389194    0.16157672   2      84  Mo
    0.33335137    0.74627233    0.10493568   1      85  Se
    0.33334979    0.74625575    0.21833278   1      86  Se
    0.49999265    0.05344893    0.24618265   1      87  Se
    0.49999257    0.05342747    0.07604114   1      88  Se
    0.49999203    0.08026531    0.16107103   2      89  Mo
    0.49999070    0.13377326    0.24445858   1      90  Se
    0.49999096    0.13377485    0.07761404   1      91  Se
    0.49999031    0.16055556    0.16104421   2      92  Mo
    0.49998945    0.21393851    0.24452037   1      93  Se
    0.49998933    0.21395507    0.07767274   1      94  Se
    0.49998954    0.24070254    0.16113085   2      95  Mo
    0.49999254    0.29411641    0.24447097   1      96  Se
    0.49999225    0.29414219    0.07796051   1      97  Se
    0.49999908    0.32095190    0.16126978   2      98  Mo
    0.50005863    0.37781874    0.08275489   1      99  Se
    0.50005855    0.37779270    0.24004077   1     100  Se
    0.50001974    0.43465820    0.16148116   2     101  Mo
    0.50002215    0.46148129    0.07823343   1     102  Se
    0.50002174    0.46147952    0.24474210   1     103  Se
    0.50002747    0.51490897    0.16144616   2     104  Mo
    0.50002880    0.54165979    0.07799379   1     105  Se
    0.50002891    0.54167166    0.24484000   1     106  Se
    0.50003053    0.59506192    0.16140033   2     107  Mo
    0.50003205    0.62185128    0.07800298   1     108  Se
    0.50003186    0.62183789    0.24484618   1     109  Se
    0.50003049    0.67535427    0.16150531   2     110  Mo
    0.50002987    0.70219442    0.07648518   1     111  Se
    0.50003109    0.70216945    0.24662622   1     112  Se
    0.66667205    0.00936626    0.21789966   1     113  Se
    0.66667121    0.00934673    0.10450322   1     114  Se
    0.66666618    0.04172857    0.16113159   2     115  Mo
    0.66666086    0.09372397    0.24433906   1     116  Se
    0.66665906    0.09371260    0.07777453   1     117  Se
    0.66666119    0.12048588    0.16103740   2     118  Mo
    0.66665726    0.17385193    0.24447529   1     119  Se
    0.66665668    0.17386333    0.07763240   1     120  Se
    0.66666277    0.20063058    0.16108097   2     121  Mo
    0.66665423    0.25402887    0.24454788   1     122  Se
    0.66665416    0.25404936    0.07775147   1     123  Se
    0.66666066    0.28078934    0.16119126   2     124  Mo
    0.66666958    0.33417524    0.24679512   1     125  Se
    0.66666825    0.33420609    0.07580338   1     126  Se
    0.66666729    0.35913805    0.16135631   2     127  Mo    #move +0.000000y
    0.66667458    0.39647219    0.16143559   2     128  Mo    #move -0.000000y
    0.66668577    0.42142691    0.07597387   1     129  Se
    0.66668821    0.42141143    0.24696439   1     130  Se
    0.66669296    0.47482111    0.16148521   2     131  Mo
    0.66668876    0.50157705    0.24485765   1     132  Se
    0.66669454    0.50156607    0.07806351   1     133  Se
    0.66669980    0.55498389    0.16140603   2     134  Mo
    0.66669683    0.58175823    0.07797858   1     135  Se
    0.66669659    0.58175922    0.24481766   1     136  Se
    0.66670266    0.63513252    0.16143933   2     137  Mo
    0.66669688    0.66188988    0.24476341   1     138  Se
    0.66669582    0.66191181    0.07819958   1     139  Se
    0.66670379    0.71389198    0.16157699   2     140  Mo
    0.66671155    0.74627237    0.10493617   1     141  Se
    0.66671431    0.74625577    0.21833337   1     142  Se
    0.83332718    0.05344927    0.24618617   1     143  Se
    0.83332717    0.05342782    0.07603764   1     144  Se
    0.83332087    0.08026482    0.16107093   2     145  Mo
    0.83332247    0.13377299    0.24446128   1     146  Se
    0.83332197    0.13377400    0.07761121   1     147  Se
    0.83331822    0.16055458    0.16104359   2     148  Mo
    0.83332845    0.21393922    0.24452250   1     149  Se
    0.83332742    0.21395549    0.07767005   1     150  Se
    0.83332058    0.24070291    0.16113045   2     151  Mo
    0.83332676    0.29411576    0.24447234   1     152  Se
    0.83332576    0.29414190    0.07795808   1     153  Se
    0.83332652    0.32095099    0.16126952   2     154  Mo
    0.83333655    0.37781807    0.08276803   1     155  Se
    0.83333657    0.37779218    0.24002675   1     156  Se
    0.83334640    0.43465906    0.16148076   2     157  Mo
    0.83335443    0.46148192    0.07822998   1     158  Se
    0.83335561    0.46148050    0.24474519   1     159  Se
    0.83335774    0.51490919    0.16144750   2     160  Mo
    0.83336352    0.54165948    0.07799245   1     161  Se
    0.83336808    0.54167176    0.24484071   1     162  Se
    0.83336092    0.59506211    0.16140033   2     163  Mo
    0.83336738    0.62185096    0.07799925   1     164  Se
    0.83336688    0.62183824    0.24484718   1     165  Se
    0.83335749    0.67535502    0.16150551   2     166  Mo
    0.83336482    0.70219411    0.07648288   1     167  Se
    0.83336015    0.70216917    0.24662990   1     168  Se
%endblock AtomicCoordinatesAndAtomicSpecies
PAO.Basis        < basis.fdf
XC.Functional          LDA
XC.Authors             CA                 # CA = Ceperley-Alder
SpinPolarized          .true.
NonCollinearSpin        T
SpinOrbit               T
OffSpinOrbit T
Spin SO
PAO.OldStylePolOrbs F
Restricted.Radial.Grid  F
MeshCutoff             750 Ry
#OccupationFunction      MP
#OccupationMPOrder       3
#DM.MixSCF1  F
#MixHamiltonian T
#
#DM.MixingWeight        0.010    # New DM amount for next SCF cycle
#DM.NumberPulay         4
#SCF.Mix       Hamiltonian
#SCF.Mix.First    true
#SCF.Mixer.Method    Pulay
#SCF.Mixer.Variant   GR
#SCF.Mixer.Weight    0.010
#SCF.Mixer.History    6
#SCF.Mixer.Restart    20
#SCF.Mixer.Restart.Save  5
DM.Tolerance           1.d-4
DM.UseSaveDM         .true.
DM.NumberKick           15
DM.History.Depth         0
UseSaveData  .true.
MaxSCFIterations       10 #300
SolutionMethod         diagon
ElectronicTemperature     5 K
MD.TypeOfRun            LUA   #cg          # Type of dynamics:
#MD.TypeOfRun           FIRE
#MD.FIRE.TimeStep       0.5 fs
#MD.FinalTimeStep       10  fs
MD.VariableCell      .false.
MD.NumCGsteps          0
MD.MaxForceTol        0.01 eV/Ang
MD.UseSaveCG         .true.
MD.UseSaveXV         .true.
%block kgrid_Monkhorst_Pack
  2  0  0    0.0
  0  1  0    0.0
  0  0  1    0.0
%endblock kgrid_Monkhorst_Pack
#kgrid_cutoff 30 Bohr
WriteCoorInitial  .true.
WriteCoorStep     .true.
AtomCoorFormatOut  fractional
WriteCoorXmol  .true.
WriteCoorStep  .true.
WriteMDXmol    .true.
WriteMullikenPop 1
WriteKbands    .true.
WriteBands    .true.
BandLinesScale     ReciprocalLatticeVectors
%block Bandlines
  1    0.000000000000   0.000000000000   0.0000       \Gamma
 60    0.500000000000   0.000000000000   0.0000       M
%endblock BandLines
#
#%block WaveFuncKPoints
#0.000  0.000  0.000  from   910 to 1100
##%endblock WaveFuncKPoints
#
#%block ProjectedDensityOfStates
# -10.00 4.00  0.020  1000  eV
#%endblock ProjectedDensityOfStates
#
#SaveElectrostaticPotential      .true.
#
#SaveTotalCharge
#SaveDeltaRho                  .true.
#SaveRho                       .true.
#
#%block LocalDensityOfStates
# -4.0569 -4.0069   eV
#%endblock LocalDensityOfStates
#
#BornCharge         .true.
#%block PolarizationGrids
#10   5   5   yes
# 5  10   5   yes
# 5   5  10   yes
#%endblock PolarizationGrids
#
#MD.TypeOfRun            FC
#MD.FCfirst              1
#MD.FClast               3
#MD.FCDispl              0.04 Bohr
#Use.New.Diagk    .true.
#NumberOfEigenStates  2500
#COOP.Write  .true.
#WFS.Write.For.Bands   .true.   # This is the correct syntaxis!!!
************************** End of input data file *****************************

reinit: -----------------------------------------------------------------------
reinit: System Name: 
reinit: -----------------------------------------------------------------------
reinit: System Label: 44P-nr
reinit: -----------------------------------------------------------------------
Siesta Version: siesta-4.1--736
Architecture  : unknown
Compiler flags: mpif90 -O2 -fPIC -ftree-vectorize
PP flags      : -DFC_HAVE_ABORT -DMPI -DFC_HAVE_FLUSH -DFC_HAVE_ABORT -DGRID_DP -DPHI_GRID_SP -DSIESTA__FLOOK
Libraries     :  /usr/lib/libscalapack-openmpi.so   libsiestaLAPACK.a libsiestaBLAS.a libfdict.a /usr/lib/libblacsF77init-openmpi.so /usr/lib/libblacsCinit-openmpi.so /usr/lib/libblacs-openmpi.so  -lflookall -ldl
PARALLEL version

* Running on 8 nodes in parallel
>> Start of run:  18-JUN-2019  11:09:26

initatom: Reading input for the pseudopotentials and atomic orbitals ----------
Species number:   1 Atomic number:   34 Label: Se
Species number:   2 Atomic number:   42 Label: Mo

Ground state valence configuration:   4s02  4p04
Reading pseudopotential information in formatted form from Se.psf

Pseudopotential generated from a relativistic atomic calculation
There are spin-orbit pseudopotentials available
Spin-orbit interaction is not included in this calculation

Valence configuration for pseudopotential generation:
4s( 2.00) rc: 1.59
4p( 4.00) rc: 1.89
4d( 0.00) rc: 2.09
4f( 0.00) rc: 2.49
Ground state valence configuration:   5s01  4d05
Reading pseudopotential information in formatted form from Mo.psf

Pseudopotential generated from a relativistic atomic calculation
There are spin-orbit pseudopotentials available
Spin-orbit interaction is not included in this calculation

Valence configuration for pseudopotential generation:
5s( 1.00) rc: 2.68
5p( 0.00) rc: 2.86
4d( 5.00) rc: 1.59
4f( 0.00) rc: 2.46
For Se, standard SIESTA heuristics set lmxkb to 3
 (one more than the basis l, including polarization orbitals).
Use PS.lmax or PS.KBprojectors blocks to override.
For Mo, standard SIESTA heuristics set lmxkb to 3
 (one more than the basis l, including polarization orbitals).
Use PS.lmax or PS.KBprojectors blocks to override.

<basis_specs>
===============================================================================
Se                   Z=  34    Mass=  78.960        Charge=-0.46385    
Lmxo=2 Lmxkb= 3    BasisType=split      Semic=F
L=0  Nsemic=1  Cnfigmx=5
          n=1  nzeta=2  polorb=0
            splnorm:   0.15000    
               vcte:    15.426    
               rinn:    4.9699    
               qcoe:    0.0000    
               qyuk:    0.0000    
               qwid:   0.10000E-01
                rcs:    7.0000      4.3772    
            lambdas:    1.0000      1.0000    
          n=2  nzeta=1  polorb=0
            splnorm:   0.15000    
               vcte:    15.426    
               rinn:    4.9699    
               qcoe:    0.0000    
               qyuk:    0.0000    
               qwid:   0.10000E-01
                rcs:    8.5000    
            lambdas:    1.0000    
L=1  Nsemic=1  Cnfigmx=5
          n=1  nzeta=2  polorb=0
            splnorm:   0.15000    
               vcte:    4.6964    
               rinn:    3.8313    
               qcoe:    0.0000    
               qyuk:    0.0000    
               qwid:   0.10000E-01
                rcs:    8.0000      4.0912    
            lambdas:    1.0000      1.0000    
          n=2  nzeta=1  polorb=0
            splnorm:   0.15000    
               vcte:    4.6964    
               rinn:    3.8313    
               qcoe:    0.0000    
               qyuk:    0.0000    
               qwid:   0.10000E-01
                rcs:    9.0000    
            lambdas:    1.0000    
L=2  Nsemic=0  Cnfigmx=4
          n=1  nzeta=1  polorb=0
            splnorm:   0.15000    
               vcte:    11.969    
               rinn:   0.31310E-01
               qcoe:    0.0000    
               qyuk:    0.0000    
               qwid:   0.10000E-01
                rcs:    4.5543    
            lambdas:    1.0000    
-------------------------------------------------------------------------------
L=0  Nkbl=2  erefs: 0.17977+309 0.17977+309
L=1  Nkbl=2  erefs: 0.17977+309 0.17977+309
L=2  Nkbl=1  erefs: 0.17977+309
L=3  Nkbl=1  erefs: 0.17977+309
===============================================================================
</basis_specs>

atom: Called for Se                    (Z =  34)

read_vps: Pseudopotential generation method:
read_vps: ATM3.3    Troullier-Martins                       
Total valence charge:    6.00000

read_vps: Pseudopotential includes a core correction:
read_vps: Pseudo-core for xc-correction

xc_check: Exchange-correlation functional:
xc_check: Ceperley-Alder
V l=0 = -2*Zval/r beyond r=  2.6146
V l=1 = -2*Zval/r beyond r=  2.6146
V l=2 = -2*Zval/r beyond r=  2.6146
V l=3 = -2*Zval/r beyond r=  2.6475
All V_l potentials equal beyond r=  2.4257
This should be close to max(r_c) in ps generation
All pots = -2*Zval/r beyond r=  2.6475

VLOCAL1: 99.0% of the norm of Vloc inside      7.377 Ry
VLOCAL1: 99.9% of the norm of Vloc inside     16.813 Ry
atom: Maximum radius for 4*pi*r*r*local-pseudopot. charge    2.92594
atom: Maximum radius for r*vlocal+2*Zval:    2.55004
KBgen: More than one KB projector for l=  0
KBgen: ghost states analysis will be not performed
KBgen: More than one KB projector for l=  1
KBgen: ghost states analysis will be not performed
GHOST: No ghost state for L =  2
GHOST: No ghost state for L =  3

KBgen: Kleinman-Bylander projectors: 
   l= 0   rc=  2.783233   el= -1.282158   Ekb= 11.370865   kbcos=  0.151502
   l= 0   rc=  3.075956   el= -0.034164   Ekb= -4.251274   kbcos= -0.022856
   l= 1   rc=  2.889589   el= -0.489586   Ekb=  3.935595   kbcos=  0.152172
   l= 1   rc=  3.193497   el=  0.001397   Ekb= -1.276933   kbcos= -0.019739
   l= 2   rc=  3.075956   el=  0.002313   Ekb=  1.936802   kbcos=  0.035633
   l= 3   rc=  3.193497   el=  0.003400   Ekb= -0.955935   kbcos= -0.012466

KBgen: Total number of  Kleinman-Bylander projectors:   20
atom: -------------------------------------------------------------------------

atom: SANKEY-TYPE ORBITALS:
atom: Selected multiple-zeta basis: split     

atom: basis set generated (by rescaling the valence charge)
atom: for an anion of charge  -0.4638

SPLIT: Orbitals with angular momentum L= 0

SPLIT: Basis orbitals for state 4s

   izeta = 1
                 lambda =    1.000000
                     rc =    7.019058
                 energy =   -1.279950
                kinetic =    0.775135
    potential(screened) =   -2.055085
       potential(ionic) =   -6.605857

   izeta = 2
                 rmatch =    4.365020
              splitnorm =    0.074124
                 energy =   -1.235162
                kinetic =    1.079865
    potential(screened) =   -2.315027
       potential(ionic) =   -7.039863

SPLIT: Basis orbitals for state 5s

   izeta = 1
                 lambda =    1.000000
                     rc =    8.466616
                 energy =    0.083685
                kinetic =    0.552412
    potential(screened) =   -0.468727
       potential(ionic) =   -3.165349

SPLIT: Orbitals with angular momentum L= 1

SPLIT: Basis orbitals for state 4p

   izeta = 1
                 lambda =    1.000000
                     rc =    7.953645
                 energy =   -0.483780
                kinetic =    1.008165
    potential(screened) =   -1.491945
       potential(ionic) =   -5.516266

   izeta = 2
                 rmatch =    4.100552
              splitnorm =    0.270005
                 energy =   -0.326866
                kinetic =    1.777447
    potential(screened) =   -2.104314
       potential(ionic) =   -6.685220

SPLIT: Basis orbitals for state 5p

   izeta = 1
                 lambda =    1.000000
                     rc =    9.012670
                 energy =    0.208299
                kinetic =    0.738260
    potential(screened) =   -0.529960
       potential(ionic) =   -3.094676

SPLIT: Orbitals with angular momentum L= 2

SPLIT: Basis orbitals for state 4d

   izeta = 1
                 lambda =    1.000000
                     rc =    4.531819
                 energy =    0.908584
                kinetic =    2.695796
    potential(screened) =   -1.787213
       potential(ionic) =   -6.107282
atom: Total number of Sankey-type orbitals: 17

atm_pop: Valence configuration (for local Pseudopot. screening):
 4s( 2.00)                                                            
 4p( 4.00)                                                            
 4d( 0.00)                                                            
Vna: chval, zval:    6.00000   6.00000

Vna:  Cut-off radius for the neutral-atom potential:   7.953645
comcore: Pseudo-core radius Rcore=  3.618716

atom: _________________________________________________________________________

<basis_specs>
===============================================================================
Mo                   Z=  42    Mass=  95.940        Charge=  1.8181    
Lmxo=2 Lmxkb= 3    BasisType=split      Semic=F
L=0  Nsemic=0  Cnfigmx=5
          n=1  nzeta=2  polorb=0
            splnorm:   0.15000    
               vcte:    100.92    
               rinn:    4.6777    
               qcoe:    0.0000    
               qyuk:    0.0000    
               qwid:   0.10000E-01
                rcs:    6.9933      4.1004    
            lambdas:    1.0000      1.0000    
L=1  Nsemic=0  Cnfigmx=5
          n=1  nzeta=1  polorb=0
            splnorm:   0.15000    
               vcte:    169.69    
               rinn:    4.1438    
               qcoe:    0.0000    
               qyuk:    0.0000    
               qwid:   0.10000E-01
                rcs:    6.8691    
            lambdas:    1.0000    
L=2  Nsemic=0  Cnfigmx=4
          n=1  nzeta=2  polorb=0
            splnorm:   0.15000    
               vcte:    98.279    
               rinn:    5.5847    
               qcoe:    0.0000    
               qyuk:    0.0000    
               qwid:   0.10000E-01
                rcs:    8.2697      4.7526    
            lambdas:    1.0000      1.0000    
-------------------------------------------------------------------------------
L=0  Nkbl=1  erefs: 0.17977+309
L=1  Nkbl=1  erefs: 0.17977+309
L=2  Nkbl=1  erefs: 0.17977+309
L=3  Nkbl=1  erefs: 0.17977+309
===============================================================================
</basis_specs>

atom: Called for Mo                    (Z =  42)

read_vps: Pseudopotential generation method:
read_vps: ATM3.3    Troullier-Martins                       
Total valence charge:    6.00000

xc_check: Exchange-correlation functional:
xc_check: Ceperley-Alder
V l=0 = -2*Zval/r beyond r=  4.5372
V l=1 = -2*Zval/r beyond r=  4.5372
V l=2 = -2*Zval/r beyond r=  4.5372
V l=3 = -2*Zval/r beyond r=  4.5372
All V_l potentials equal beyond r=  2.8216
This should be close to max(r_c) in ps generation
All pots = -2*Zval/r beyond r=  4.5372
Using large-core scheme for Vlocal

atom: Estimated core radius    4.53723

atom: Including non-local core corrections could be a good idea
atom: Maximum radius for 4*pi*r*r*local-pseudopot. charge    4.89062
atom: Maximum radius for r*vlocal+2*Zval:    4.59431
GHOST: No ghost state for L =  0
GHOST: No ghost state for L =  1
GHOST: No ghost state for L =  2
GHOST: No ghost state for L =  3

KBgen: Kleinman-Bylander projectors: 
   l= 0   rc=  2.929437   el= -0.317108   Ekb=  2.566537   kbcos=  0.287139
   l= 1   rc=  2.929437   el= -0.085513   Ekb=  1.392262   kbcos=  0.278629
   l= 2   rc=  2.893046   el= -0.290109   Ekb= -5.935692   kbcos= -0.581520
   l= 3   rc=  2.929437   el=  0.003392   Ekb= -2.584021   kbcos= -0.024572

KBgen: Total number of  Kleinman-Bylander projectors:   16
atom: -------------------------------------------------------------------------

atom: SANKEY-TYPE ORBITALS:
atom: Selected multiple-zeta basis: split     

atom: basis set generated (by rescaling the valence charge)
atom: for a cation of charge   1.8181

SPLIT: Orbitals with angular momentum L= 0

SPLIT: Basis orbitals for state 5s

   izeta = 1
                 lambda =    1.000000
                     rc =    7.027436
                 energy =   -1.427215
                kinetic =    0.396732
    potential(screened) =   -1.823946
       potential(ionic) =   -4.231402

   izeta = 2
                 rmatch =    4.105453
              splitnorm =    0.649722
                 energy =   -0.350951
                kinetic =    1.759978
    potential(screened) =   -2.110928
       potential(ionic) =   -4.671240

SPLIT: Orbitals with angular momentum L= 1

SPLIT: Basis orbitals for state 5p

   izeta = 1
                 lambda =    1.000000
                     rc =    6.853927
                 energy =   -0.968364
                kinetic =    0.765102
    potential(screened) =   -1.733467
       potential(ionic) =   -4.089529

SPLIT: Orbitals with angular momentum L= 2

SPLIT: Basis orbitals for state 4d

   izeta = 1
                 lambda =    1.000000
                     rc =    8.267426
                 energy =   -1.855219
                kinetic =    4.699929
    potential(screened) =   -6.555148
       potential(ionic) =   -9.643294

   izeta = 2
                 rmatch =    4.769865
              splitnorm =    0.006810
                 energy =   -1.845347
* WARNING: effective split_norm is quite small. Orbitals will be very similar.
                kinetic =    4.920242
    potential(screened) =   -6.765589
       potential(ionic) =   -9.892025
atom: Total number of Sankey-type orbitals: 15

atm_pop: Valence configuration (for local Pseudopot. screening):
 5s( 1.00)                                                            
 5p( 0.00)                                                            
 4d( 5.00)                                                            
Vna: chval, zval:    6.00000   6.00000

Vna:  Cut-off radius for the neutral-atom potential:   8.267426

atom: _________________________________________________________________________

prinput: Basis input ----------------------------------------------------------

PAO.BasisType split     

%block ChemicalSpeciesLabel
    1   34 Se                      # Species index, atomic number, species label
    2   42 Mo                      # Species index, atomic number, species label
%endblock ChemicalSpeciesLabel

%block PAO.Basis                 # Define Basis set
Se                    5  -0.464            # Label, l-shells, ionic net charge
 n=4   0   2                         # n, l, Nzeta 
   7.019      4.365   
   1.000      1.000   
 n=5   0   1                         # n, l, Nzeta 
   8.467   
   1.000   
 n=4   1   2                         # n, l, Nzeta 
   7.954      4.101   
   1.000      1.000   
 n=5   1   1                         # n, l, Nzeta 
   9.013   
   1.000   
 n=4   2   1                         # n, l, Nzeta 
   4.532   
   1.000   
Mo                    3   1.818            # Label, l-shells, ionic net charge
 n=5   0   2                         # n, l, Nzeta 
   7.027      4.105   
   1.000      1.000   
 n=5   1   1                         # n, l, Nzeta 
   6.854   
   1.000   
 n=4   2   2                         # n, l, Nzeta 
   8.267      4.770   
   1.000      1.000   
%endblock PAO.Basis

prinput: ----------------------------------------------------------------------

coor:   Atomic-coordinates input format  =     Fractional

ioxv: Reading coordinates and velocities from file
! Info in XV file prevails over previous structure input

siesta: Atomic coordinates (Bohr) and species
siesta:     18.34536   1.23906   8.23544  1        1
siesta:     18.34534   1.23646   3.94972  1        2
siesta:     18.34534   5.52002   6.08990  2        3
siesta:     18.34532  12.39792   9.23460  1        4
siesta:     18.34532  12.39640   2.93954  1        5
siesta:     18.34530  15.93807   6.08633  2        6
siesta:     18.34528  22.99870   2.93414  1        7
siesta:     18.34528  22.99720   9.23974  1        8
siesta:     18.34528  26.53958   6.08797  2        9
siesta:     18.34530  33.60329   9.24248  1       10
siesta:     18.34529  33.60600   2.93862  1       11
siesta:     18.34534  37.14315   6.09212  2       12
siesta:     18.34537  44.20493   9.32749  1       13
siesta:     18.34537  44.20906   2.86501  1       14
siesta:      0.00019  47.50707   6.09841  2       15
siesta:      0.00030  52.44563   6.10140  2       16
siesta:      0.00024  55.74671   2.87149  1       17
siesta:      0.00023  55.74473   9.33384  1       18
siesta:      0.00045  62.80965   6.10326  2       19
siesta:      0.00050  66.34748   2.95048  1       20
siesta:      0.00051  66.34905   9.25425  1       21
siesta:      0.00054  73.41372   6.10021  2       22
siesta:      0.00055  76.95553   2.94720  1       23
siesta:      0.00055  76.95557   9.25267  1       24
siesta:      0.00057  84.01591   6.10152  2       25
siesta:      0.00056  87.55833   2.95566  1       26
siesta:      0.00057  87.55551   9.25064  1       27
siesta:      0.00055  94.43415   6.10676  2       28
siesta:      0.00055  98.71752   3.96603  1       29
siesta:      0.00058  98.71537   8.25174  1       30
siesta:      3.05743   7.07032   9.30449  1       31
siesta:      3.05743   7.06748   2.87380  1       32
siesta:      3.05751  10.61750   6.08760  2       33
siesta:      3.05744  17.69560   9.23931  1       34
siesta:      3.05744  17.69575   2.93328  1       35
siesta:      3.05749  21.23830   6.08657  2       36
siesta:      3.05729  28.30006   9.24162  1       37
siesta:      3.05731  28.30222   2.93550  1       38
siesta:      3.05744  31.84039   6.08985  2       39
siesta:      3.05745  38.90597   9.23970  1       40
siesta:      3.05747  38.90942   2.94642  1       41
siesta:      3.05754  42.45571   6.09511  2       42
siesta:      3.05681  49.97811   3.12760  1       43
siesta:      3.05682  49.97468   9.07228  1       44
siesta:      3.05795  57.49704   6.10309  2       45
siesta:      3.05805  61.04516   2.95670  1       46
siesta:      3.05801  61.04496   9.25000  1       47
siesta:      3.05815  68.11264   6.10182  2       48
siesta:      3.05810  71.65121   2.94769  1       49
siesta:      3.05805  71.65282   9.25363  1       50
siesta:      3.05819  78.71534   6.10006  2       51
siesta:      3.05812  82.25901   2.94796  1       52
siesta:      3.05810  82.25731   9.25389  1       53
siesta:      3.05826  89.33656   6.10402  2       54
siesta:      3.05809  92.88686   2.89065  1       55
siesta:      3.05821  92.88356   9.32126  1       56
siesta:      6.11480   1.23898   8.23542  1       57
siesta:      6.11482   1.23639   3.94965  1       58
siesta:      6.11490   5.51990   6.08990  2       59
siesta:      6.11496  12.39789   9.23468  1       60
siesta:      6.11498  12.39639   2.93945  1       61
siesta:      6.11493  15.93798   6.08633  2       62
siesta:      6.11496  22.99728   9.23983  1       63
siesta:      6.11498  22.99879   2.93409  1       64
siesta:      6.11485  26.53959   6.08798  2       65
siesta:      6.11501  33.60316   9.24257  1       66
siesta:      6.11500  33.60589   2.93858  1       67
siesta:      6.11497  37.14309   6.09215  2       68
siesta:      6.11509  44.20518   9.32748  1       69
siesta:      6.11512  44.20926   2.86497  1       70
siesta:      6.11517  47.50718   6.09838  2       71
siesta:      6.11525  52.44557   6.10138  2       72
siesta:      6.11548  55.74653   2.87142  1       73
siesta:      6.11540  55.74447   9.33389  1       74
siesta:      6.11554  62.80974   6.10326  2       75
siesta:      6.11565  66.34759   2.95036  1       76
siesta:      6.11573  66.34906   9.25427  1       77
siesta:      6.11564  73.41377   6.10026  2       78
siesta:      6.11572  76.95550   2.94716  1       79
siesta:      6.11572  76.95562   9.25277  1       80
siesta:      6.11565  84.01589   6.10153  2       81
siesta:      6.11575  87.55828   2.95551  1       82
siesta:      6.11573  87.55539   9.25072  1       83
siesta:      6.11560  94.43426   6.10672  2       84
siesta:      6.11549  98.71756   3.96600  1       85
siesta:      6.11546  98.71537   8.25179  1       86
siesta:      9.17260   7.07027   9.30436  1       87
siesta:      9.17260   7.06743   2.87394  1       88
siesta:      9.17259  10.61757   6.08761  2       89
siesta:      9.17256  17.69564   9.23920  1       90
siesta:      9.17257  17.69586   2.93339  1       91
siesta:      9.17256  21.23843   6.08659  2       92
siesta:      9.17254  28.29997   9.24153  1       93
siesta:      9.17254  28.30217   2.93561  1       94
siesta:      9.17254  31.84034   6.08987  2       95
siesta:      9.17260  38.90598   9.23967  1       96
siesta:      9.17259  38.90939   2.94648  1       97
siesta:      9.17272  42.45580   6.09512  2       98
siesta:      9.17381  49.97820   3.12768  1       99
siesta:      9.17381  49.97475   9.07223  1      100
siesta:      9.17310  57.49697   6.10311  2      101
siesta:      9.17314  61.04515   2.95680  1      102
siesta:      9.17313  61.04492   9.24991  1      103
siesta:      9.17324  68.11261   6.10178  2      104
siesta:      9.17326  71.65123   2.94774  1      105
siesta:      9.17326  71.65280   9.25361  1      106
siesta:      9.17329  78.71532   6.10005  2      107
siesta:      9.17332  82.25904   2.94809  1      108
siesta:      9.17332  82.25726   9.25385  1      109
siesta:      9.17329  89.33646   6.10402  2      110
siesta:      9.17328  92.88690   2.89072  1      111
siesta:      9.17330  92.88359   9.32112  1      112
siesta:     12.23041   1.23898   8.23542  1      113
siesta:     12.23040   1.23639   3.94965  1      114
siesta:     12.23030   5.51989   6.08989  2      115
siesta:     12.23021  12.39789   9.23468  1      116
siesta:     12.23017  12.39639   2.93945  1      117
siesta:     12.23021  15.93798   6.08633  2      118
siesta:     12.23014  22.99729   9.23983  1      119
siesta:     12.23013  22.99879   2.93408  1      120
siesta:     12.23024  26.53959   6.08798  2      121
siesta:     12.23008  33.60316   9.24257  1      122
siesta:     12.23008  33.60587   2.93858  1      123
siesta:     12.23020  37.14306   6.09215  2      124
siesta:     12.23037  44.20500   9.32751  1      125
siesta:     12.23034  44.20908   2.86495  1      126
siesta:     12.23032  47.50710   6.09839  2      127
siesta:     12.23046  52.44569   6.10138  2      128
siesta:     12.23066  55.74672   2.87140  1      129
siesta:     12.23071  55.74468   9.33390  1      130
siesta:     12.23079  62.80975   6.10326  2      131
siesta:     12.23072  66.34905   9.25428  1      132
siesta:     12.23082  66.34760   2.95037  1      133
siesta:     12.23092  73.41376   6.10027  2      134
siesta:     12.23087  76.95549   2.94716  1      135
siesta:     12.23086  76.95562   9.25277  1      136
siesta:     12.23097  84.01589   6.10152  2      137
siesta:     12.23087  87.55538   9.25072  1      138
siesta:     12.23085  87.55828   2.95552  1      139
siesta:     12.23099  94.43426   6.10673  2      140
siesta:     12.23114  98.71757   3.96601  1      141
siesta:     12.23119  98.71537   8.25181  1      142
siesta:     15.28778   7.07032   9.30449  1      143
siesta:     15.28778   7.06748   2.87381  1      144
siesta:     15.28766  10.61750   6.08760  2      145
siesta:     15.28769  17.69561   9.23930  1      146
siesta:     15.28768  17.69574   2.93328  1      147
siesta:     15.28761  21.23830   6.08657  2      148
siesta:     15.28780  28.30007   9.24161  1      149
siesta:     15.28778  28.30222   2.93550  1      150
siesta:     15.28766  31.84039   6.08985  2      151
siesta:     15.28777  38.90589   9.23972  1      152
siesta:     15.28775  38.90935   2.94639  1      153
siesta:     15.28777  42.45568   6.09511  2      154
siesta:     15.28795  49.97811   3.12818  1      155
siesta:     15.28795  49.97468   9.07170  1      156
siesta:     15.28813  57.49708   6.10309  2      157
siesta:     15.28828  61.04524   2.95667  1      158
siesta:     15.28830  61.04505   9.25003  1      159
siesta:     15.28834  68.11264   6.10183  2      160
siesta:     15.28844  71.65119   2.94769  1      161
siesta:     15.28853  71.65282   9.25364  1      162
siesta:     15.28840  78.71534   6.10005  2      163
siesta:     15.28852  82.25899   2.94795  1      164
siesta:     15.28851  82.25731   9.25389  1      165
siesta:     15.28833  89.33656   6.10403  2      166
siesta:     15.28847  92.88686   2.89064  1      167
siesta:     15.28838  92.88356   9.32126  1      168

siesta: System type = chain     

initatomlists: Number of atoms, orbitals, and projectors:    168  2748  3144

coxmol: Writing XMOL coordinates into file 44P-nr.xyz                                                          

siesta: ******************** Simulation parameters ****************************
siesta:
siesta: The following are some of the parameters of the simulation.
siesta: A complete list of the parameters used, including default values,
siesta: can be found in file out.fdf
siesta:
redata: Spin configuration                          = spin-orbit
redata: Number of spin components                   = 8
redata: Time-Reversal Symmetry                      = F
redata: Spin-spiral                                 = F
############################################################
#              Spin-orbit coupling is in beta              #
#           Several options may not be compatible          #
############################################################
redata: Long output                                 =   F
redata: Number of Atomic Species                    =        2
redata: Charge density info will appear in .RHO file
redata: Write Mulliken Pop.                         = Atomic and Orbital charges
redata: Mesh Cutoff                                 =   750.0000 Ry
redata: Net charge of the system                    =    -1.2000 |e|
redata: Min. number of SCF Iter                     =        0
redata: Max. number of SCF Iter                     =       10
redata: SCF mix quantity                            = Hamiltonian
redata: Mix DM or H after convergence               =   F
redata: Recompute H after scf cycle                 =   F
redata: Mix DM in first SCF step                    =   T
redata: Write Pulay info on disk                    =   F
redata: New DM Mixing Weight                        =     0.2500
redata: New DM Occupancy tolerance                  = 0.000000000001
redata: Kick with linear mixing every               =       15 iterations
redata: DM Mixing Weight for Kicks                  =     0.5000
redata: Require Harris convergence for SCF          =   F
redata: Harris energy tolerance for SCF             =     0.000100 eV
redata: Require DM convergence for SCF              =   T
redata: DM tolerance for SCF                        =     0.0001
redata: Require EDM convergence for SCF             =   F
redata: EDM tolerance for SCF                       =     0.001000 eV
redata: Require H convergence for SCF               =   T
redata: Hamiltonian tolerance for SCF               =     0.001000 eV
redata: Require (free) Energy convergence for SCF   =   F
redata: (free) Energy tolerance for SCF             =     0.000100 eV
redata: Using Saved Data (generic)                  =   T
redata: Use continuation files for DM               =   T
redata: Neglect nonoverlap interactions             =   F
redata: Method of Calculation                       = Diagonalization
redata: Divide and Conquer                          =   T
redata: Electronic Temperature                      =     5.0000 K
redata: Fix the spin of the system                  =   F
redata: Dynamics option                             = LUA
mix.SCF: Pulay mixing                            = Pulay
mix.SCF:    Variant                              = stable
mix.SCF:    History steps                        = 2
mix.SCF:    Linear mixing weight                 =     0.250000
mix.SCF:    Mixing weight                        =     0.250000
mix.SCF:    SVD condition                        = 0.1000E-07
mix.SCF:    Restart steps                        = 14
mix.SCF:    Restart save steps                   = 1
mix.SCF:    Number of mixing iterations          = 14
mix.SCF:    Following mixer                      = Linear-Kick
mix.SCF: Linear mixing                           = Linear-Kick
mix.SCF:    Mixing weight                        =     0.500000
mix.SCF:    Number of mixing iterations          = 1
mix.SCF:    Following mixer                      = Pulay
mix.SCF: Spin-component mixing                   all
redata: ***********************************************************************

%block SCF.Mixers
  Pulay
  Linear-Kick
%endblock SCF.Mixers

%block SCF.Mixer.Pulay
  # Mixing method
  method pulay
  variant stable

  # Mixing options
  weight 0.2500
  weight.linear 0.2500
  history 2
  restart 14
  restart.save 1

  # Continuation options
  iterations 14
  next Linear-Kick
%endblock SCF.Mixer.Pulay

%block SCF.Mixer.Linear-Kick
  # Mixing method
  method linear

  # Mixing options
  weight 0.5000

  # Continuation options
  iterations 1
  next Pulay
%endblock SCF.Mixer.Linear-Kick

Size of DM history Fstack: 0
Total number of electrons:  1009.200000
Total ionic charge:  1008.000000
madelung: WARNING: Charged system, but not an atom or molecule.
madelung: WARNING: Energy correction terms can not be applied. 
madelung: WARNING: Continue only if you really know what you are doing.

* ProcessorY, Blocksize:    2  24


* Orbital distribution balance (max,min):   360   336

k-point displ. along   1 input, could be:     0.00    0.50

Time-reversal symmetry not used.

siesta: k-grid: Number of k-points =     2
siesta: k-grid: Cutoff (effective) =     9.708 Ang
siesta: k-grid: Supercell and displacements
siesta: k-grid:    2   0   0      0.000
siesta: k-grid:    0   1   0      0.000
siesta: k-grid:    0   0   1      0.000
Using current reciprocal lattice vectors for BandLinesScale
Beware any cell changes by the end of the run
Using current reciprocal lattice vectors for BandLinesScale
Beware any cell changes by the end of the run

superc: Internal auxiliary supercell:     5 x     1 x     1  =       5
superc: Number of atoms, orbitals, and projectors:    840  13740  15720


                     ====================================
                        LUA coord. step =      0
                     ====================================

outcoor: Atomic coordinates (fractional):                   
    0.99999384    0.00936686    0.21790035   1       1  Se
    0.99999323    0.00934722    0.10450500   1       2  Se
    0.99999276    0.04172957    0.16113170   2       3  Mo
    0.99999168    0.09372423    0.24433693   1       4  Se
    0.99999182    0.09371268    0.07777686   1       5  Se
    0.99999107    0.12048657    0.16103726   2       6  Mo
    0.99998980    0.17386265    0.07763409   1       7  Se
    0.99998984    0.17385126    0.24447278   1       8  Se
    0.99998979    0.20063048    0.16108064   2       9  Mo
    0.99999061    0.25402983    0.24454527   1      10  Se
    0.99999008    0.25405029    0.07775251   1      11  Se
    0.99999301    0.28078998    0.16119055   2      12  Mo
    0.99999446    0.33417474    0.24679478   1      13  Se
    0.99999463    0.33420600    0.07580497   1      14  Se
    0.00001050    0.35913783    0.16135698   2      15  Mo
    0.00001622    0.39647176    0.16143610   2      16  Mo
    0.00001289    0.42142683    0.07597640   1      17  Se
    0.00001260    0.42141185    0.24696269   1      18  Se
    0.00002446    0.47482033    0.16148535   2      19  Mo
    0.00002711    0.50156514    0.07806621   1      20  Se
    0.00002756    0.50157700    0.24485693   1      21  Se
    0.00002959    0.55498358    0.16140456   2      22  Mo
    0.00003007    0.58175851    0.07797956   1      23  Se
    0.00002997    0.58175880    0.24481509   1      24  Se
    0.00003108    0.63513266    0.16143920   2      25  Mo
    0.00003057    0.66191219    0.07820338   1      26  Se
    0.00003118    0.66189090    0.24476130   1      27  Se
    0.00003011    0.71389112    0.16157786   2      28  Mo
    0.00002998    0.74627202    0.10493648   1      29  Se
    0.00003171    0.74625576    0.21833152   1      30  Se
    0.16665846    0.05344929    0.24618619   1      31  Se
    0.16665840    0.05342784    0.07603754   1      32  Se
    0.16666292    0.08026482    0.16107101   2      33  Mo
    0.16665917    0.13377293    0.24446144   1      34  Se
    0.16665935    0.13377402    0.07761118   1      35  Se
    0.16666193    0.16055454    0.16104366   2      36  Mo
    0.16665087    0.21393914    0.24452255   1      37  Se
    0.16665186    0.21395550    0.07767001   1      38  Se
    0.16665906    0.24070287    0.16113044   2      39  Mo
    0.16665960    0.29411637    0.24447172   1      40  Se
    0.16666079    0.29414245    0.07795892   1      41  Se
    0.16666466    0.32095122    0.16126954   2      42  Mo
    0.16662483    0.37781812    0.08275261   1      43  Se
    0.16662530    0.37779217    0.24004197   1      44  Se
    0.16668685    0.43465875    0.16148072   2      45  Mo
    0.16669228    0.46148132    0.07823085   1      46  Se
    0.16669005    0.46147985    0.24474433   1      47  Se
    0.16669788    0.51490920    0.16144717   2      48  Mo
    0.16669525    0.54165962    0.07799256   1      49  Se
    0.16669246    0.54167179    0.24484047   1      50  Se
    0.16669982    0.59506210    0.16140045   2      51  Mo
    0.16669596    0.62185105    0.07799953   1      52  Se
    0.16669502    0.62183826    0.24484718   1      53  Se
    0.16670376    0.67535501    0.16150546   2      54  Mo
    0.16669445    0.70219413    0.07648315   1      55  Se
    0.16670117    0.70216918    0.24662995   1      56  Se
    0.33331409    0.00936628    0.21789966   1      57  Se
    0.33331479    0.00934673    0.10450321   1      58  Se
    0.33331922    0.04172866    0.16113163   2      59  Mo
    0.33332290    0.09372394    0.24433895   1      60  Se
    0.33332395    0.09371262    0.07777458   1      61  Se
    0.33332080    0.12048589    0.16103735   2      62  Mo
    0.33332246    0.17385188    0.24447523   1      63  Se
    0.33332361    0.17386326    0.07763253   1      64  Se
    0.33331649    0.20063055    0.16108096   2      65  Mo
    0.33332515    0.25402888    0.24454790   1      66  Se
    0.33332488    0.25404945    0.07775149   1      67  Se
    0.33332309    0.28078953    0.16119138   2      68  Mo
    0.33332966    0.33417666    0.24679444   1      69  Se
    0.33333128    0.33420750    0.07580379   1      70  Se
    0.33333396    0.35913866    0.16135599   2      71  Mo
    0.33333853    0.39647131    0.16143556   2      72  Mo
    0.33335090    0.42142542    0.07597447   1      73  Se
    0.33334650    0.42140990    0.24696401   1      74  Se
    0.33335400    0.47482099    0.16148530   2      75  Mo
    0.33336029    0.50156595    0.07806324   1      76  Se
    0.33336448    0.50157713    0.24485743   1      77  Se
    0.33335946    0.55498396    0.16140589   2      78  Mo
    0.33336407    0.58175830    0.07797853   1      79  Se
    0.33336404    0.58175921    0.24481759   1      80  Se
    0.33336052    0.63513256    0.16143943   2      81  Mo
    0.33336569    0.66191182    0.07819948   1      82  Se
    0.33336440    0.66188998    0.24476332   1      83  Se
    0.33335741    0.71389194    0.16157672   2      84  Mo
    0.33335137    0.74627233    0.10493568   1      85  Se
    0.33334979    0.74625575    0.21833278   1      86  Se
    0.49999265    0.05344893    0.24618265   1      87  Se
    0.49999257    0.05342747    0.07604114   1      88  Se
    0.49999203    0.08026531    0.16107103   2      89  Mo
    0.49999070    0.13377326    0.24445858   1      90  Se
    0.49999096    0.13377485    0.07761404   1      91  Se
    0.49999031    0.16055556    0.16104421   2      92  Mo
    0.49998945    0.21393851    0.24452037   1      93  Se
    0.49998933    0.21395507    0.07767274   1      94  Se
    0.49998954    0.24070254    0.16113085   2      95  Mo
    0.49999254    0.29411641    0.24447097   1      96  Se
    0.49999225    0.29414219    0.07796051   1      97  Se
    0.49999908    0.32095190    0.16126978   2      98  Mo
    0.50005863    0.37781874    0.08275489   1      99  Se
    0.50005855    0.37779270    0.24004077   1     100  Se
    0.50001974    0.43465820    0.16148116   2     101  Mo
    0.50002215    0.46148129    0.07823343   1     102  Se
    0.50002174    0.46147952    0.24474210   1     103  Se
    0.50002747    0.51490897    0.16144616   2     104  Mo
    0.50002880    0.54165979    0.07799379   1     105  Se
    0.50002891    0.54167166    0.24484000   1     106  Se
    0.50003053    0.59506192    0.16140033   2     107  Mo
    0.50003205    0.62185128    0.07800298   1     108  Se
    0.50003186    0.62183789    0.24484618   1     109  Se
    0.50003049    0.67535427    0.16150531   2     110  Mo
    0.50002987    0.70219442    0.07648518   1     111  Se
    0.50003109    0.70216945    0.24662622   1     112  Se
    0.66667205    0.00936626    0.21789966   1     113  Se
    0.66667121    0.00934673    0.10450322   1     114  Se
    0.66666618    0.04172857    0.16113159   2     115  Mo
    0.66666086    0.09372397    0.24433906   1     116  Se
    0.66665906    0.09371260    0.07777453   1     117  Se
    0.66666119    0.12048588    0.16103740   2     118  Mo
    0.66665726    0.17385193    0.24447529   1     119  Se
    0.66665668    0.17386333    0.07763240   1     120  Se
    0.66666277    0.20063058    0.16108097   2     121  Mo
    0.66665423    0.25402887    0.24454788   1     122  Se
    0.66665416    0.25404936    0.07775147   1     123  Se
    0.66666066    0.28078934    0.16119126   2     124  Mo
    0.66666958    0.33417524    0.24679512   1     125  Se
    0.66666825    0.33420609    0.07580338   1     126  Se
    0.66666729    0.35913805    0.16135631   2     127  Mo
    0.66667458    0.39647219    0.16143559   2     128  Mo
    0.66668577    0.42142691    0.07597387   1     129  Se
    0.66668821    0.42141143    0.24696439   1     130  Se
    0.66669296    0.47482111    0.16148521   2     131  Mo
    0.66668876    0.50157705    0.24485765   1     132  Se
    0.66669454    0.50156607    0.07806351   1     133  Se
    0.66669980    0.55498389    0.16140603   2     134  Mo
    0.66669683    0.58175823    0.07797858   1     135  Se
    0.66669659    0.58175922    0.24481766   1     136  Se
    0.66670266    0.63513252    0.16143933   2     137  Mo
    0.66669688    0.66188988    0.24476341   1     138  Se
    0.66669582    0.66191181    0.07819958   1     139  Se
    0.66670379    0.71389198    0.16157699   2     140  Mo
    0.66671155    0.74627237    0.10493617   1     141  Se
    0.66671431    0.74625577    0.21833337   1     142  Se
    0.83332718    0.05344927    0.24618617   1     143  Se
    0.83332717    0.05342782    0.07603764   1     144  Se
    0.83332087    0.08026482    0.16107093   2     145  Mo
    0.83332247    0.13377299    0.24446128   1     146  Se
    0.83332197    0.13377400    0.07761121   1     147  Se
    0.83331822    0.16055458    0.16104359   2     148  Mo
    0.83332845    0.21393922    0.24452250   1     149  Se
    0.83332742    0.21395549    0.07767005   1     150  Se
    0.83332058    0.24070291    0.16113045   2     151  Mo
    0.83332676    0.29411576    0.24447234   1     152  Se
    0.83332576    0.29414190    0.07795808   1     153  Se
    0.83332652    0.32095099    0.16126952   2     154  Mo
    0.83333655    0.37781807    0.08276803   1     155  Se
    0.83333657    0.37779218    0.24002675   1     156  Se
    0.83334640    0.43465906    0.16148076   2     157  Mo
    0.83335443    0.46148192    0.07822998   1     158  Se
    0.83335561    0.46148050    0.24474519   1     159  Se
    0.83335774    0.51490919    0.16144750   2     160  Mo
    0.83336352    0.54165948    0.07799245   1     161  Se
    0.83336808    0.54167176    0.24484071   1     162  Se
    0.83336092    0.59506211    0.16140033   2     163  Mo
    0.83336738    0.62185096    0.07799925   1     164  Se
    0.83336688    0.62183824    0.24484718   1     165  Se
    0.83335749    0.67535502    0.16150551   2     166  Mo
    0.83336482    0.70219411    0.07648288   1     167  Se
    0.83336015    0.70216917    0.24662990   1     168  Se

superc: Internal auxiliary supercell:     5 x     1 x     1  =       5
superc: Number of atoms, orbitals, and projectors:    840  13740  15720

outcell: Unit cell vectors (Ang):
        9.708000    0.000000    0.000000
        0.000000   70.000000    0.000000
        0.000000    0.000000   20.000000

outcell: Cell vector modules (Ang)   :    9.708000   70.000000   20.000000
outcell: Cell angles (23,13,12) (deg):     90.0000     90.0000     90.0000
outcell: Cell volume (Ang**3)        :  13591.2000
<dSpData1D:S at geom step 0
  <sparsity:sparsity for geom step 0
    nrows_g=2748 nrows=360 sparsity=.0588 nnzs=443853, refcount: 8>
  <dData1D:(new from dSpData1D) n=443853, refcount: 1>
refcount: 1>
new_DM -- step:     1
Initializing Density Matrix...

Attempting to read DM from file... Failed...
DM filled with atomic data (user-defined):
<dSpData2D:DM initialized from atoms
  <sparsity:sparsity for geom step 0
    nrows_g=2748 nrows=360 sparsity=.0588 nnzs=443853, refcount: 9>
  <dData2D:DM n=443853 m=8, refcount: 1>
refcount: 1>

initDM: Initial spin polarization (x,y,z) =    0.000000    0.000000    6.000000

Note: For starting DM, Qtot, Tr[D*S] =       1009.20000000       1007.99999973
No. of atoms with KB's overlaping orbs in proc 0. Max # of overlaps:     287     382
New grid distribution:   1
           1       1:   80    1:  300    1:   45
           2       1:   80    1:  300   46:   90
           3       1:   80    1:  300   91:  135
           4       1:   80    1:  300  136:  180
           5       1:   80  301:  600    1:   45
           6       1:   80  301:  600   46:   90
           7       1:   80  301:  600   91:  135
           8       1:   80  301:  600  136:  180

InitMesh: MESH =   160 x  1200 x   360 =    69120000
InitMesh: (bp) =    80 x   600 x   180 =     8640000
InitMesh: Mesh cutoff (required, used) =   750.000   750.727 Ry
ExtMesh (bp) on 0 =   240 x   464 x   217 =    24165120
New grid distribution:   2
           1       1:   80    1:  120    1:   30
           2       1:   80    1:  120   31:  180
           3       1:   80  121:  229   32:  180
           4       1:   80  121:  229    1:   31
           5       1:   80  339:  600    1:   31
           6       1:   80  339:  600   32:  180
           7       1:   80  230:  338   32:  180
           8       1:   80  230:  338    1:   31
New grid distribution:   3
           1       1:   80  128:  253    1:   57
           2       1:   80    1:  127    1:   56
           3       1:   80    1:  127   57:  180
           4       1:   80  128:  253   58:  180
           5       1:   80  379:  600    1:   50
           6       1:   80  254:  378    1:   57
           7       1:   80  379:  600   51:  180
           8       1:   80  254:  378   58:  180
Setting up quadratic distribution...
ExtMesh (bp) on 0 =   240 x   284 x   202 =    13768320
PhiOnMesh: Number of (b)points on node 0 =               288000
PhiOnMesh: nlist on node 0 =             37965966
